 Entering Gaussian System, Link 0=g16
 Initial command:
 /opt/software/gaussian/g16.c01/l1.exe "/localscratch/lustra.25458771.0/Gau-16141.inp" -scrdir="/localscratch/lustra.25458771.0/"
 Entering Link 1 = /opt/software/gaussian/g16.c01/l1.exe PID=     16142.
  
 Copyright (c) 1988-2019, Gaussian, Inc.  All Rights Reserved.
  
 This is part of the Gaussian(R) 16 program.  It is based on
 the Gaussian(R) 09 system (copyright 2009, Gaussian, Inc.),
 the Gaussian(R) 03 system (copyright 2003, Gaussian, Inc.),
 the Gaussian(R) 98 system (copyright 1998, Gaussian, Inc.),
 the Gaussian(R) 94 system (copyright 1995, Gaussian, Inc.),
 the Gaussian 92(TM) system (copyright 1992, Gaussian, Inc.),
 the Gaussian 90(TM) system (copyright 1990, Gaussian, Inc.),
 the Gaussian 88(TM) system (copyright 1988, Gaussian, Inc.),
 the Gaussian 86(TM) system (copyright 1986, Carnegie Mellon
 University), and the Gaussian 82(TM) system (copyright 1983,
 Carnegie Mellon University). Gaussian is a federally registered
 trademark of Gaussian, Inc.
  
 This software contains proprietary and confidential information,
 including trade secrets, belonging to Gaussian, Inc.
  
 This software is provided under written license and may be
 used, copied, transmitted, or stored only in accord with that
 written license.
  
 The following legend is applicable only to US Government
 contracts under FAR:
  
                    RESTRICTED RIGHTS LEGEND
  
 Use, reproduction and disclosure by the US Government is
 subject to restrictions as set forth in subparagraphs (a)
 and (c) of the Commercial Computer Software - Restricted
 Rights clause in FAR 52.227-19.
  
 Gaussian, Inc.
 340 Quinnipiac St., Bldg. 40, Wallingford CT 06492
  
  
 ---------------------------------------------------------------
 Warning -- This program may not be used in any manner that
 competes with the business of Gaussian, Inc. or will provide
 assistance to any competitor of Gaussian, Inc.  The licensee
 of this program is prohibited from giving any competitor of
 Gaussian, Inc. access to this program.  By using this program,
 the user acknowledges that Gaussian, Inc. is engaged in the
 business of creating and licensing software in the field of
 computational chemistry and represents and warrants to the
 licensee that it is not a competitor of Gaussian, Inc. and that
 it will not use this program in any manner prohibited above.
 ---------------------------------------------------------------
  

 Cite this work as:
 Gaussian 16, Revision C.01,
 M. J. Frisch, G. W. Trucks, H. B. Schlegel, G. E. Scuseria, 
 M. A. Robb, J. R. Cheeseman, G. Scalmani, V. Barone, 
 G. A. Petersson, H. Nakatsuji, X. Li, M. Caricato, A. V. Marenich, 
 J. Bloino, B. G. Janesko, R. Gomperts, B. Mennucci, H. P. Hratchian, 
 J. V. Ortiz, A. F. Izmaylov, J. L. Sonnenberg, D. Williams-Young, 
 F. Ding, F. Lipparini, F. Egidi, J. Goings, B. Peng, A. Petrone, 
 T. Henderson, D. Ranasinghe, V. G. Zakrzewski, J. Gao, N. Rega, 
 G. Zheng, W. Liang, M. Hada, M. Ehara, K. Toyota, R. Fukuda, 
 J. Hasegawa, M. Ishida, T. Nakajima, Y. Honda, O. Kitao, H. Nakai, 
 T. Vreven, K. Throssell, J. A. Montgomery, Jr., J. E. Peralta, 
 F. Ogliaro, M. J. Bearpark, J. J. Heyd, E. N. Brothers, K. N. Kudin, 
 V. N. Staroverov, T. A. Keith, R. Kobayashi, J. Normand, 
 K. Raghavachari, A. P. Rendell, J. C. Burant, S. S. Iyengar, 
 J. Tomasi, M. Cossi, J. M. Millam, M. Klene, C. Adamo, R. Cammi, 
 J. W. Ochterski, R. L. Martin, K. Morokuma, O. Farkas, 
 J. B. Foresman, and D. J. Fox, Gaussian, Inc., Wallingford CT, 2019.
 
 ******************************************
 Gaussian 16:  ES64L-G16RevC.01  3-Jul-2019
                27-Jan-2022 
 ******************************************
 %NProcShared=2
 Will use up to    2 processors via shared memory.
 %Chk=checkpoint.chk
 -------------------------------------------------
 #opt=(calcfc,ts,noeigentest) freq B3LYP 6-31+G(d)
 -------------------------------------------------
 1/5=1,10=4,11=1,18=20,26=3,38=1/1,3;
 2/9=110,12=2,17=6,18=5,40=1/2;
 3/5=1,6=6,7=11,11=2,25=1,30=1,71=2,74=-5,140=1/1,2,3;
 4//1;
 5/5=2,38=5/2;
 8/6=4,10=90,11=11/1;
 11/6=1,8=1,9=11,15=111,16=1/1,2,10;
 10/6=1,13=1/2;
 6/7=2,8=2,9=2,10=2,28=1/1;
 7/10=1,25=1/1,2,3,16;
 1/5=1,10=4,11=1,18=20,26=3/3(2);
 2/9=110/2;
 99//99;
 2/9=110/2;
 3/5=1,6=6,7=11,11=2,25=1,30=1,71=1,74=-5/1,2,3;
 4/5=5,16=3,69=1/1;
 5/5=2,38=5/2;
 7//1,2,3,16;
 1/5=1,11=1,18=20,26=3/3(-5);
 2/9=110/2;
 6/7=2,8=2,9=2,10=2,19=2,28=1/1;
 99/9=1/99;
 --
 TS
 --
 Symbolic Z-matrix:
 Charge =  0 Multiplicity = 1
 C                    -0.264     0.229    -0.741 
 C                    -0.871     1.491    -0.826 
 C                    -0.122     2.646    -0.562 
 C                     1.228     2.535    -0.216 
 C                     1.837     1.28     -0.13 
 C                     1.09      0.123    -0.392 
 H                    -1.904     1.572    -1.091 
 H                     1.553    -0.839    -0.328 
 C                     2.045     3.798     0.072 
 C                     3.396     3.686     0.419 
 C                     1.435     5.054    -0.015 
 C                     4.144     4.841     0.682 
 C                     2.183     6.209     0.248 
 C                     3.534     6.098     0.595 
 C                    -0.78      4.038    -0.653 
 C                    -0.054     5.159    -0.398 
 C                     4.053     2.294     0.509 
 H                     5.087     2.209     0.775 
 C                     3.327     1.173     0.254 
 H                     3.722     0.179     0.292 
 C                     4.351     7.36      0.883 
 C                     3.742     8.616     0.796 
 C                     5.702     7.248     1.229 
 C                     4.49      9.772     1.059 
 C                     6.45      8.404     1.492 
 C                     5.84      9.66      1.406 
 C                     6.658     10.923    1.693 
 C                     8.008     10.812    2.04 
 C                     6.049     12.178    1.606 
 C                     8.757     11.966    2.303 
 C                     6.796     13.334    1.869 
 C                     8.15      13.228    2.218 
 H                     9.79      11.885    2.569 
 H                     6.333     14.297    1.804 
 C                     1.526     7.601     0.157 
 C                     2.252     8.723     0.412 
 C                     6.36      5.856     1.321 
 H                     7.393     5.772     1.586 
 C                     5.634     4.735     1.065 
 H                     6.099     3.774     1.131 
 C                     3.833     11.164    0.968 
 H                     2.799     11.248    0.702 
 C                     4.559     12.285    1.223 
 H                     4.094     13.246    1.157 
 C                     8.665     9.419     2.131 
 H                     9.699     9.336     2.397 
 C                     7.94      8.298     1.876 
 H                     8.406     7.337     1.942 
 H                     0.493     7.685    -0.108 
 H                     1.786     9.684     0.347 
 H                    -1.813     4.122    -0.918 
 H                    -0.52      6.121    -0.464 
 C                    -1.086    -1.04     -1.03 
 H                    -1.532    -1.392    -0.123 
 H                    -1.854    -0.814    -1.74 
 H                    -0.444    -1.798    -1.428 
 C                     8.972     14.498    2.506 
 H                     8.585     15.312    1.93 
 H                     8.908     14.735    3.548 
 H                     9.995     14.328    2.242 
 Br                    3.03      1.53      2.73 
 Br                    2.214     1.279     5.627 
 
 Add virtual bond connecting atoms Br61       and C17        Dist= 4.84D+00.
 Add virtual bond connecting atoms Br61       and C19        Dist= 4.76D+00.
 Add virtual bond connecting atoms Br62       and Br61       Dist= 5.71D+00.

 GradGradGradGradGradGradGradGradGradGradGradGradGradGradGradGradGradGrad
 Berny optimization.
 Initialization pass.
                           ----------------------------
                           !    Initial Parameters    !
                           ! (Angstroms and Degrees)  !
 --------------------------                            --------------------------
 ! Name  Definition              Value          Derivative Info.                !
 --------------------------------------------------------------------------------
 ! R1    R(1,2)                  1.403          calculate D2E/DX2 analytically  !
 ! R2    R(1,6)                  1.4023         calculate D2E/DX2 analytically  !
 ! R3    R(1,53)                 1.5393         calculate D2E/DX2 analytically  !
 ! R4    R(2,3)                  1.4017         calculate D2E/DX2 analytically  !
 ! R5    R(2,7)                  1.0695         calculate D2E/DX2 analytically  !
 ! R6    R(3,4)                  1.398          calculate D2E/DX2 analytically  !
 ! R7    R(3,15)                 1.5424         calculate D2E/DX2 analytically  !
 ! R8    R(4,5)                  1.3976         calculate D2E/DX2 analytically  !
 ! R9    R(4,9)                  1.5315         calculate D2E/DX2 analytically  !
 ! R10   R(5,6)                  1.4019         calculate D2E/DX2 analytically  !
 ! R11   R(5,19)                 1.5424         calculate D2E/DX2 analytically  !
 ! R12   R(6,8)                  1.0695         calculate D2E/DX2 analytically  !
 ! R13   R(9,10)                 1.3993         calculate D2E/DX2 analytically  !
 ! R14   R(9,11)                 1.399          calculate D2E/DX2 analytically  !
 ! R15   R(10,12)                1.401          calculate D2E/DX2 analytically  !
 ! R16   R(10,17)                1.5419         calculate D2E/DX2 analytically  !
 ! R17   R(11,13)                1.401          calculate D2E/DX2 analytically  !
 ! R18   R(11,16)                1.541          calculate D2E/DX2 analytically  !
 ! R19   R(12,14)                1.3999         calculate D2E/DX2 analytically  !
 ! R20   R(12,39)                1.5421         calculate D2E/DX2 analytically  !
 ! R21   R(13,14)                1.3993         calculate D2E/DX2 analytically  !
 ! R22   R(13,35)                1.5419         calculate D2E/DX2 analytically  !
 ! R23   R(14,21)                1.5307         calculate D2E/DX2 analytically  !
 ! R24   R(15,16)                1.3597         calculate D2E/DX2 analytically  !
 ! R25   R(15,51)                1.0698         calculate D2E/DX2 analytically  !
 ! R26   R(16,52)                1.071          calculate D2E/DX2 analytically  !
 ! R27   R(17,18)                1.071          calculate D2E/DX2 analytically  !
 ! R28   R(17,19)                1.3597         calculate D2E/DX2 analytically  !
 ! R29   R(17,61)                2.5618         calculate D2E/DX2 analytically  !
 ! R30   R(19,20)                1.0703         calculate D2E/DX2 analytically  !
 ! R31   R(19,61)                2.5192         calculate D2E/DX2 analytically  !
 ! R32   R(21,22)                1.3986         calculate D2E/DX2 analytically  !
 ! R33   R(21,23)                1.3991         calculate D2E/DX2 analytically  !
 ! R34   R(22,24)                1.4018         calculate D2E/DX2 analytically  !
 ! R35   R(22,36)                1.5424         calculate D2E/DX2 analytically  !
 ! R36   R(23,25)                1.4018         calculate D2E/DX2 analytically  !
 ! R37   R(23,37)                1.5424         calculate D2E/DX2 analytically  !
 ! R38   R(24,26)                1.3984         calculate D2E/DX2 analytically  !
 ! R39   R(24,41)                1.5419         calculate D2E/DX2 analytically  !
 ! R40   R(25,26)                1.3989         calculate D2E/DX2 analytically  !
 ! R41   R(25,47)                1.5423         calculate D2E/DX2 analytically  !
 ! R42   R(26,27)                1.5319         calculate D2E/DX2 analytically  !
 ! R43   R(27,28)                1.3983         calculate D2E/DX2 analytically  !
 ! R44   R(27,29)                1.3977         calculate D2E/DX2 analytically  !
 ! R45   R(28,30)                1.4007         calculate D2E/DX2 analytically  !
 ! R46   R(28,45)                1.5428         calculate D2E/DX2 analytically  !
 ! R47   R(29,31)                1.4013         calculate D2E/DX2 analytically  !
 ! R48   R(29,43)                1.5422         calculate D2E/DX2 analytically  !
 ! R49   R(30,32)                1.403          calculate D2E/DX2 analytically  !
 ! R50   R(30,33)                1.0698         calculate D2E/DX2 analytically  !
 ! R51   R(31,32)                1.4023         calculate D2E/DX2 analytically  !
 ! R52   R(31,34)                1.0705         calculate D2E/DX2 analytically  !
 ! R53   R(32,57)                1.54           calculate D2E/DX2 analytically  !
 ! R54   R(35,36)                1.3605         calculate D2E/DX2 analytically  !
 ! R55   R(35,49)                1.0698         calculate D2E/DX2 analytically  !
 ! R56   R(36,50)                1.07           calculate D2E/DX2 analytically  !
 ! R57   R(37,38)                1.0698         calculate D2E/DX2 analytically  !
 ! R58   R(37,39)                1.3599         calculate D2E/DX2 analytically  !
 ! R59   R(39,40)                1.0696         calculate D2E/DX2 analytically  !
 ! R60   R(41,42)                1.071          calculate D2E/DX2 analytically  !
 ! R61   R(41,43)                1.3597         calculate D2E/DX2 analytically  !
 ! R62   R(43,44)                1.0696         calculate D2E/DX2 analytically  !
 ! R63   R(45,46)                1.0709         calculate D2E/DX2 analytically  !
 ! R64   R(45,47)                1.3592         calculate D2E/DX2 analytically  !
 ! R65   R(47,48)                1.0701         calculate D2E/DX2 analytically  !
 ! R66   R(53,54)                1.0703         calculate D2E/DX2 analytically  !
 ! R67   R(53,55)                1.07           calculate D2E/DX2 analytically  !
 ! R68   R(53,56)                1.0701         calculate D2E/DX2 analytically  !
 ! R69   R(57,58)                1.0696         calculate D2E/DX2 analytically  !
 ! R70   R(57,59)                1.0705         calculate D2E/DX2 analytically  !
 ! R71   R(57,60)                1.0701         calculate D2E/DX2 analytically  !
 ! R72   R(61,62)                3.0202         calculate D2E/DX2 analytically  !
 ! A1    A(2,1,6)              120.0554         calculate D2E/DX2 analytically  !
 ! A2    A(2,1,53)             119.943          calculate D2E/DX2 analytically  !
 ! A3    A(6,1,53)             120.0016         calculate D2E/DX2 analytically  !
 ! A4    A(1,2,3)              119.9081         calculate D2E/DX2 analytically  !
 ! A5    A(1,2,7)              120.0673         calculate D2E/DX2 analytically  !
 ! A6    A(3,2,7)              120.0245         calculate D2E/DX2 analytically  !
 ! A7    A(2,3,4)              119.8137         calculate D2E/DX2 analytically  !
 ! A8    A(2,3,15)             120.3045         calculate D2E/DX2 analytically  !
 ! A9    A(4,3,15)             119.8818         calculate D2E/DX2 analytically  !
 ! A10   A(3,4,5)              120.4837         calculate D2E/DX2 analytically  !
 ! A11   A(3,4,9)              119.7477         calculate D2E/DX2 analytically  !
 ! A12   A(5,4,9)              119.7685         calculate D2E/DX2 analytically  !
 ! A13   A(4,5,6)              119.8291         calculate D2E/DX2 analytically  !
 ! A14   A(4,5,19)             119.9044         calculate D2E/DX2 analytically  !
 ! A15   A(6,5,19)             120.2665         calculate D2E/DX2 analytically  !
 ! A16   A(1,6,5)              119.9099         calculate D2E/DX2 analytically  !
 ! A17   A(1,6,8)              120.0583         calculate D2E/DX2 analytically  !
 ! A18   A(5,6,8)              120.0317         calculate D2E/DX2 analytically  !
 ! A19   A(4,9,10)             119.7126         calculate D2E/DX2 analytically  !
 ! A20   A(4,9,11)             119.7407         calculate D2E/DX2 analytically  !
 ! A21   A(10,9,11)            120.5467         calculate D2E/DX2 analytically  !
 ! A22   A(9,10,12)            119.7384         calculate D2E/DX2 analytically  !
 ! A23   A(9,10,17)            119.8753         calculate D2E/DX2 analytically  !
 ! A24   A(12,10,17)           120.3864         calculate D2E/DX2 analytically  !
 ! A25   A(9,11,13)            119.715          calculate D2E/DX2 analytically  !
 ! A26   A(9,11,16)            119.8628         calculate D2E/DX2 analytically  !
 ! A27   A(13,11,16)           120.4222         calculate D2E/DX2 analytically  !
 ! A28   A(10,12,14)           119.7329         calculate D2E/DX2 analytically  !
 ! A29   A(10,12,39)           120.3871         calculate D2E/DX2 analytically  !
 ! A30   A(14,12,39)           119.88           calculate D2E/DX2 analytically  !
 ! A31   A(11,13,14)           119.7791         calculate D2E/DX2 analytically  !
 ! A32   A(11,13,35)           120.377          calculate D2E/DX2 analytically  !
 ! A33   A(14,13,35)           119.8439         calculate D2E/DX2 analytically  !
 ! A34   A(12,14,13)           120.488          calculate D2E/DX2 analytically  !
 ! A35   A(12,14,21)           119.7375         calculate D2E/DX2 analytically  !
 ! A36   A(13,14,21)           119.7744         calculate D2E/DX2 analytically  !
 ! A37   A(3,15,16)            120.346          calculate D2E/DX2 analytically  !
 ! A38   A(3,15,51)            119.8309         calculate D2E/DX2 analytically  !
 ! A39   A(16,15,51)           119.823          calculate D2E/DX2 analytically  !
 ! A40   A(11,16,15)           120.4209         calculate D2E/DX2 analytically  !
 ! A41   A(11,16,52)           119.7982         calculate D2E/DX2 analytically  !
 ! A42   A(15,16,52)           119.7809         calculate D2E/DX2 analytically  !
 ! A43   A(10,17,18)           119.8352         calculate D2E/DX2 analytically  !
 ! A44   A(10,17,19)           120.3877         calculate D2E/DX2 analytically  !
 ! A45   A(10,17,61)            98.6087         calculate D2E/DX2 analytically  !
 ! A46   A(18,17,19)           119.7771         calculate D2E/DX2 analytically  !
 ! A47   A(18,17,61)            98.4259         calculate D2E/DX2 analytically  !
 ! A48   A(5,19,17)            120.3515         calculate D2E/DX2 analytically  !
 ! A49   A(5,19,20)            115.4542         calculate D2E/DX2 analytically  !
 ! A50   A(5,19,61)             96.9483         calculate D2E/DX2 analytically  !
 ! A51   A(17,19,20)           124.1926         calculate D2E/DX2 analytically  !
 ! A52   A(20,19,61)            98.061          calculate D2E/DX2 analytically  !
 ! A53   A(14,21,22)           119.755          calculate D2E/DX2 analytically  !
 ! A54   A(14,21,23)           119.7306         calculate D2E/DX2 analytically  !
 ! A55   A(22,21,23)           120.5143         calculate D2E/DX2 analytically  !
 ! A56   A(21,22,24)           119.7734         calculate D2E/DX2 analytically  !
 ! A57   A(21,22,36)           119.8968         calculate D2E/DX2 analytically  !
 ! A58   A(24,22,36)           120.3298         calculate D2E/DX2 analytically  !
 ! A59   A(21,23,25)           119.7123         calculate D2E/DX2 analytically  !
 ! A60   A(21,23,37)           119.9293         calculate D2E/DX2 analytically  !
 ! A61   A(25,23,37)           120.3584         calculate D2E/DX2 analytically  !
 ! A62   A(22,24,26)           119.7127         calculate D2E/DX2 analytically  !
 ! A63   A(22,24,41)           120.4            calculate D2E/DX2 analytically  !
 ! A64   A(26,24,41)           119.8872         calculate D2E/DX2 analytically  !
 ! A65   A(23,25,26)           119.7483         calculate D2E/DX2 analytically  !
 ! A66   A(23,25,47)           120.3668         calculate D2E/DX2 analytically  !
 ! A67   A(26,25,47)           119.8849         calculate D2E/DX2 analytically  !
 ! A68   A(24,26,25)           120.539          calculate D2E/DX2 analytically  !
 ! A69   A(24,26,27)           119.7335         calculate D2E/DX2 analytically  !
 ! A70   A(25,26,27)           119.7275         calculate D2E/DX2 analytically  !
 ! A71   A(26,27,28)           119.7743         calculate D2E/DX2 analytically  !
 ! A72   A(26,27,29)           119.7347         calculate D2E/DX2 analytically  !
 ! A73   A(28,27,29)           120.491          calculate D2E/DX2 analytically  !
 ! A74   A(27,28,30)           119.8326         calculate D2E/DX2 analytically  !
 ! A75   A(27,28,45)           119.8306         calculate D2E/DX2 analytically  !
 ! A76   A(30,28,45)           120.3368         calculate D2E/DX2 analytically  !
 ! A77   A(27,29,31)           119.7885         calculate D2E/DX2 analytically  !
 ! A78   A(27,29,43)           119.9174         calculate D2E/DX2 analytically  !
 ! A79   A(31,29,43)           120.2941         calculate D2E/DX2 analytically  !
 ! A80   A(28,30,32)           119.8923         calculate D2E/DX2 analytically  !
 ! A81   A(28,30,33)           120.0443         calculate D2E/DX2 analytically  !
 ! A82   A(32,30,33)           120.0634         calculate D2E/DX2 analytically  !
 ! A83   A(29,31,32)           119.9402         calculate D2E/DX2 analytically  !
 ! A84   A(29,31,34)           120.0112         calculate D2E/DX2 analytically  !
 ! A85   A(32,31,34)           120.0487         calculate D2E/DX2 analytically  !
 ! A86   A(30,32,31)           120.0554         calculate D2E/DX2 analytically  !
 ! A87   A(30,32,57)           119.9705         calculate D2E/DX2 analytically  !
 ! A88   A(31,32,57)           119.974          calculate D2E/DX2 analytically  !
 ! A89   A(13,35,36)           120.402          calculate D2E/DX2 analytically  !
 ! A90   A(13,35,49)           119.7986         calculate D2E/DX2 analytically  !
 ! A91   A(36,35,49)           119.7993         calculate D2E/DX2 analytically  !
 ! A92   A(22,36,35)           120.3278         calculate D2E/DX2 analytically  !
 ! A93   A(22,36,50)           119.8774         calculate D2E/DX2 analytically  !
 ! A94   A(35,36,50)           119.7947         calculate D2E/DX2 analytically  !
 ! A95   A(23,37,38)           119.8403         calculate D2E/DX2 analytically  !
 ! A96   A(23,37,39)           120.3291         calculate D2E/DX2 analytically  !
 ! A97   A(38,37,39)           119.8305         calculate D2E/DX2 analytically  !
 ! A98   A(12,39,37)           120.3933         calculate D2E/DX2 analytically  !
 ! A99   A(12,39,40)           119.8103         calculate D2E/DX2 analytically  !
 ! A100  A(37,39,40)           119.7963         calculate D2E/DX2 analytically  !
 ! A101  A(24,41,42)           119.7914         calculate D2E/DX2 analytically  !
 ! A102  A(24,41,43)           120.3783         calculate D2E/DX2 analytically  !
 ! A103  A(42,41,43)           119.8303         calculate D2E/DX2 analytically  !
 ! A104  A(29,43,41)           120.3488         calculate D2E/DX2 analytically  !
 ! A105  A(29,43,44)           119.8473         calculate D2E/DX2 analytically  !
 ! A106  A(41,43,44)           119.8038         calculate D2E/DX2 analytically  !
 ! A107  A(28,45,46)           119.7223         calculate D2E/DX2 analytically  !
 ! A108  A(28,45,47)           120.4282         calculate D2E/DX2 analytically  !
 ! A109  A(46,45,47)           119.8496         calculate D2E/DX2 analytically  !
 ! A110  A(25,47,45)           120.3545         calculate D2E/DX2 analytically  !
 ! A111  A(25,47,48)           119.8539         calculate D2E/DX2 analytically  !
 ! A112  A(45,47,48)           119.7916         calculate D2E/DX2 analytically  !
 ! A113  A(1,53,54)            109.5454         calculate D2E/DX2 analytically  !
 ! A114  A(1,53,55)            109.4947         calculate D2E/DX2 analytically  !
 ! A115  A(1,53,56)            109.4754         calculate D2E/DX2 analytically  !
 ! A116  A(54,53,55)           109.4314         calculate D2E/DX2 analytically  !
 ! A117  A(54,53,56)           109.4041         calculate D2E/DX2 analytically  !
 ! A118  A(55,53,56)           109.4763         calculate D2E/DX2 analytically  !
 ! A119  A(32,57,58)           109.4971         calculate D2E/DX2 analytically  !
 ! A120  A(32,57,59)           109.4325         calculate D2E/DX2 analytically  !
 ! A121  A(32,57,60)           109.4587         calculate D2E/DX2 analytically  !
 ! A122  A(58,57,59)           109.5143         calculate D2E/DX2 analytically  !
 ! A123  A(58,57,60)           109.5069         calculate D2E/DX2 analytically  !
 ! A124  A(59,57,60)           109.4177         calculate D2E/DX2 analytically  !
 ! A125  A(17,61,62)           164.6373         calculate D2E/DX2 analytically  !
 ! A126  A(19,61,62)           164.3341         calculate D2E/DX2 analytically  !
 ! D1    D(6,1,2,3)              0.0212         calculate D2E/DX2 analytically  !
 ! D2    D(6,1,2,7)           -179.9251         calculate D2E/DX2 analytically  !
 ! D3    D(53,1,2,3)           179.9662         calculate D2E/DX2 analytically  !
 ! D4    D(53,1,2,7)             0.0199         calculate D2E/DX2 analytically  !
 ! D5    D(2,1,6,5)             -0.0937         calculate D2E/DX2 analytically  !
 ! D6    D(2,1,6,8)           -179.9479         calculate D2E/DX2 analytically  !
 ! D7    D(53,1,6,5)           179.9613         calculate D2E/DX2 analytically  !
 ! D8    D(53,1,6,8)             0.1071         calculate D2E/DX2 analytically  !
 ! D9    D(2,1,53,54)          -89.9933         calculate D2E/DX2 analytically  !
 ! D10   D(2,1,53,55)           30.0178         calculate D2E/DX2 analytically  !
 ! D11   D(2,1,53,56)          150.0409         calculate D2E/DX2 analytically  !
 ! D12   D(6,1,53,54)           89.9517         calculate D2E/DX2 analytically  !
 ! D13   D(6,1,53,55)         -150.0372         calculate D2E/DX2 analytically  !
 ! D14   D(6,1,53,56)          -30.014          calculate D2E/DX2 analytically  !
 ! D15   D(1,2,3,4)              0.0544         calculate D2E/DX2 analytically  !
 ! D16   D(1,2,3,15)           179.989          calculate D2E/DX2 analytically  !
 ! D17   D(7,2,3,4)           -179.9992         calculate D2E/DX2 analytically  !
 ! D18   D(7,2,3,15)            -0.0647         calculate D2E/DX2 analytically  !
 ! D19   D(2,3,4,5)             -0.0579         calculate D2E/DX2 analytically  !
 ! D20   D(2,3,4,9)            179.9936         calculate D2E/DX2 analytically  !
 ! D21   D(15,3,4,5)          -179.9927         calculate D2E/DX2 analytically  !
 ! D22   D(15,3,4,9)             0.0587         calculate D2E/DX2 analytically  !
 ! D23   D(2,3,15,16)         -179.9538         calculate D2E/DX2 analytically  !
 ! D24   D(2,3,15,51)            0.054          calculate D2E/DX2 analytically  !
 ! D25   D(4,3,15,16)           -0.0193         calculate D2E/DX2 analytically  !
 ! D26   D(4,3,15,51)          179.9886         calculate D2E/DX2 analytically  !
 ! D27   D(3,4,5,6)             -0.0147         calculate D2E/DX2 analytically  !
 ! D28   D(3,4,5,19)          -179.9496         calculate D2E/DX2 analytically  !
 ! D29   D(9,4,5,6)            179.9338         calculate D2E/DX2 analytically  !
 ! D30   D(9,4,5,19)            -0.0011         calculate D2E/DX2 analytically  !
 ! D31   D(3,4,9,10)           179.9637         calculate D2E/DX2 analytically  !
 ! D32   D(3,4,9,11)            -0.0874         calculate D2E/DX2 analytically  !
 ! D33   D(5,4,9,10)             0.0148         calculate D2E/DX2 analytically  !
 ! D34   D(5,4,9,11)           179.9637         calculate D2E/DX2 analytically  !
 ! D35   D(4,5,6,1)              0.0904         calculate D2E/DX2 analytically  !
 ! D36   D(4,5,6,8)            179.9447         calculate D2E/DX2 analytically  !
 ! D37   D(19,5,6,1)          -179.9748         calculate D2E/DX2 analytically  !
 ! D38   D(19,5,6,8)            -0.1206         calculate D2E/DX2 analytically  !
 ! D39   D(4,5,19,17)           -0.0387         calculate D2E/DX2 analytically  !
 ! D40   D(4,5,19,20)         -179.5856         calculate D2E/DX2 analytically  !
 ! D41   D(4,5,19,61)           78.0305         calculate D2E/DX2 analytically  !
 ! D42   D(6,5,19,17)         -179.9734         calculate D2E/DX2 analytically  !
 ! D43   D(6,5,19,20)            0.4797         calculate D2E/DX2 analytically  !
 ! D44   D(6,5,19,61)         -101.9042         calculate D2E/DX2 analytically  !
 ! D45   D(4,9,10,12)          179.9728         calculate D2E/DX2 analytically  !
 ! D46   D(4,9,10,17)            0.008          calculate D2E/DX2 analytically  !
 ! D47   D(11,9,10,12)           0.0242         calculate D2E/DX2 analytically  !
 ! D48   D(11,9,10,17)        -179.9406         calculate D2E/DX2 analytically  !
 ! D49   D(4,9,11,13)         -179.9727         calculate D2E/DX2 analytically  !
 ! D50   D(4,9,11,16)            0.0726         calculate D2E/DX2 analytically  !
 ! D51   D(10,9,11,13)          -0.0242         calculate D2E/DX2 analytically  !
 ! D52   D(10,9,11,16)        -179.9788         calculate D2E/DX2 analytically  !
 ! D53   D(9,10,12,14)          -0.0267         calculate D2E/DX2 analytically  !
 ! D54   D(9,10,12,39)        -179.97           calculate D2E/DX2 analytically  !
 ! D55   D(17,10,12,14)        179.9379         calculate D2E/DX2 analytically  !
 ! D56   D(17,10,12,39)         -0.0053         calculate D2E/DX2 analytically  !
 ! D57   D(9,10,17,18)        -179.9775         calculate D2E/DX2 analytically  !
 ! D58   D(9,10,17,19)          -0.0478         calculate D2E/DX2 analytically  !
 ! D59   D(9,10,17,61)         -75.0457         calculate D2E/DX2 analytically  !
 ! D60   D(12,10,17,18)          0.058          calculate D2E/DX2 analytically  !
 ! D61   D(12,10,17,19)        179.9876         calculate D2E/DX2 analytically  !
 ! D62   D(12,10,17,61)        104.9897         calculate D2E/DX2 analytically  !
 ! D63   D(9,11,13,14)           0.0267         calculate D2E/DX2 analytically  !
 ! D64   D(9,11,13,35)        -179.9822         calculate D2E/DX2 analytically  !
 ! D65   D(16,11,13,14)        179.981          calculate D2E/DX2 analytically  !
 ! D66   D(16,11,13,35)         -0.0278         calculate D2E/DX2 analytically  !
 ! D67   D(9,11,16,15)          -0.0333         calculate D2E/DX2 analytically  !
 ! D68   D(9,11,16,52)         179.981          calculate D2E/DX2 analytically  !
 ! D69   D(13,11,16,15)       -179.9876         calculate D2E/DX2 analytically  !
 ! D70   D(13,11,16,52)          0.0267         calculate D2E/DX2 analytically  !
 ! D71   D(10,12,14,13)          0.0295         calculate D2E/DX2 analytically  !
 ! D72   D(10,12,14,21)        179.9703         calculate D2E/DX2 analytically  !
 ! D73   D(39,12,14,13)        179.9731         calculate D2E/DX2 analytically  !
 ! D74   D(39,12,14,21)         -0.0861         calculate D2E/DX2 analytically  !
 ! D75   D(10,12,39,37)       -179.9652         calculate D2E/DX2 analytically  !
 ! D76   D(10,12,39,40)         -0.0473         calculate D2E/DX2 analytically  !
 ! D77   D(14,12,39,37)          0.0916         calculate D2E/DX2 analytically  !
 ! D78   D(14,12,39,40)       -179.9905         calculate D2E/DX2 analytically  !
 ! D79   D(11,13,14,12)         -0.0296         calculate D2E/DX2 analytically  !
 ! D80   D(11,13,14,21)       -179.9703         calculate D2E/DX2 analytically  !
 ! D81   D(35,13,14,12)        179.9793         calculate D2E/DX2 analytically  !
 ! D82   D(35,13,14,21)          0.0385         calculate D2E/DX2 analytically  !
 ! D83   D(11,13,35,36)       -179.9849         calculate D2E/DX2 analytically  !
 ! D84   D(11,13,35,49)          0.0311         calculate D2E/DX2 analytically  !
 ! D85   D(14,13,35,36)          0.0063         calculate D2E/DX2 analytically  !
 ! D86   D(14,13,35,49)       -179.9777         calculate D2E/DX2 analytically  !
 ! D87   D(12,14,21,22)        179.9907         calculate D2E/DX2 analytically  !
 ! D88   D(12,14,21,23)          0.1017         calculate D2E/DX2 analytically  !
 ! D89   D(13,14,21,22)         -0.0681         calculate D2E/DX2 analytically  !
 ! D90   D(13,14,21,23)       -179.9571         calculate D2E/DX2 analytically  !
 ! D91   D(3,15,16,11)           0.0044         calculate D2E/DX2 analytically  !
 ! D92   D(3,15,16,52)         179.9901         calculate D2E/DX2 analytically  !
 ! D93   D(51,15,16,11)        179.9965         calculate D2E/DX2 analytically  !
 ! D94   D(51,15,16,52)         -0.0178         calculate D2E/DX2 analytically  !
 ! D95   D(10,17,19,5)           0.0619         calculate D2E/DX2 analytically  !
 ! D96   D(10,17,19,20)        179.5673         calculate D2E/DX2 analytically  !
 ! D97   D(18,17,19,5)         179.9916         calculate D2E/DX2 analytically  !
 ! D98   D(18,17,19,20)         -0.503          calculate D2E/DX2 analytically  !
 ! D99   D(10,17,61,62)        -60.6365         calculate D2E/DX2 analytically  !
 ! D100  D(18,17,61,62)         61.4428         calculate D2E/DX2 analytically  !
 ! D101  D(5,19,61,62)          60.2741         calculate D2E/DX2 analytically  !
 ! D102  D(20,19,61,62)        -56.7619         calculate D2E/DX2 analytically  !
 ! D103  D(14,21,22,24)       -179.9677         calculate D2E/DX2 analytically  !
 ! D104  D(14,21,22,36)          0.0516         calculate D2E/DX2 analytically  !
 ! D105  D(23,21,22,24)         -0.0795         calculate D2E/DX2 analytically  !
 ! D106  D(23,21,22,36)        179.9397         calculate D2E/DX2 analytically  !
 ! D107  D(14,21,23,25)        179.9677         calculate D2E/DX2 analytically  !
 ! D108  D(14,21,23,37)         -0.1118         calculate D2E/DX2 analytically  !
 ! D109  D(22,21,23,25)          0.0795         calculate D2E/DX2 analytically  !
 ! D110  D(22,21,23,37)       -180.0            calculate D2E/DX2 analytically  !
 ! D111  D(21,22,24,26)          0.0214         calculate D2E/DX2 analytically  !
 ! D112  D(21,22,24,41)       -179.9702         calculate D2E/DX2 analytically  !
 ! D113  D(36,22,24,26)       -179.9979         calculate D2E/DX2 analytically  !
 ! D114  D(36,22,24,41)          0.0104         calculate D2E/DX2 analytically  !
 ! D115  D(21,22,36,35)         -0.0069         calculate D2E/DX2 analytically  !
 ! D116  D(21,22,36,50)        179.906          calculate D2E/DX2 analytically  !
 ! D117  D(24,22,36,35)       -179.9875         calculate D2E/DX2 analytically  !
 ! D118  D(24,22,36,50)         -0.0746         calculate D2E/DX2 analytically  !
 ! D119  D(21,23,25,26)         -0.0214         calculate D2E/DX2 analytically  !
 ! D120  D(21,23,25,47)        179.9429         calculate D2E/DX2 analytically  !
 ! D121  D(37,23,25,26)       -179.9416         calculate D2E/DX2 analytically  !
 ! D122  D(37,23,25,47)          0.0227         calculate D2E/DX2 analytically  !
 ! D123  D(21,23,37,38)       -179.9792         calculate D2E/DX2 analytically  !
 ! D124  D(21,23,37,39)          0.1174         calculate D2E/DX2 analytically  !
 ! D125  D(25,23,37,38)         -0.0592         calculate D2E/DX2 analytically  !
 ! D126  D(25,23,37,39)       -179.9626         calculate D2E/DX2 analytically  !
 ! D127  D(22,24,26,25)          0.0364         calculate D2E/DX2 analytically  !
 ! D128  D(22,24,26,27)        179.9774         calculate D2E/DX2 analytically  !
 ! D129  D(41,24,26,25)       -179.972          calculate D2E/DX2 analytically  !
 ! D130  D(41,24,26,27)         -0.0309         calculate D2E/DX2 analytically  !
 ! D131  D(22,24,41,42)         -0.0155         calculate D2E/DX2 analytically  !
 ! D132  D(22,24,41,43)       -179.9903         calculate D2E/DX2 analytically  !
 ! D133  D(26,24,41,42)        179.9929         calculate D2E/DX2 analytically  !
 ! D134  D(26,24,41,43)          0.0181         calculate D2E/DX2 analytically  !
 ! D135  D(23,25,26,24)         -0.0364         calculate D2E/DX2 analytically  !
 ! D136  D(23,25,26,27)       -179.9774         calculate D2E/DX2 analytically  !
 ! D137  D(47,25,26,24)        179.9992         calculate D2E/DX2 analytically  !
 ! D138  D(47,25,26,27)          0.0582         calculate D2E/DX2 analytically  !
 ! D139  D(23,25,47,45)       -179.9974         calculate D2E/DX2 analytically  !
 ! D140  D(23,25,47,48)          0.0126         calculate D2E/DX2 analytically  !
 ! D141  D(26,25,47,45)         -0.0332         calculate D2E/DX2 analytically  !
 ! D142  D(26,25,47,48)        179.9768         calculate D2E/DX2 analytically  !
 ! D143  D(24,26,27,28)       -179.9974         calculate D2E/DX2 analytically  !
 ! D144  D(24,26,27,29)          0.0036         calculate D2E/DX2 analytically  !
 ! D145  D(25,26,27,28)         -0.0559         calculate D2E/DX2 analytically  !
 ! D146  D(25,26,27,29)        179.9451         calculate D2E/DX2 analytically  !
 ! D147  D(26,27,28,30)       -179.984          calculate D2E/DX2 analytically  !
 ! D148  D(26,27,28,45)          0.0259         calculate D2E/DX2 analytically  !
 ! D149  D(29,27,28,30)          0.015          calculate D2E/DX2 analytically  !
 ! D150  D(29,27,28,45)       -179.9751         calculate D2E/DX2 analytically  !
 ! D151  D(26,27,29,31)        179.9654         calculate D2E/DX2 analytically  !
 ! D152  D(26,27,29,43)          0.0354         calculate D2E/DX2 analytically  !
 ! D153  D(28,27,29,31)         -0.0335         calculate D2E/DX2 analytically  !
 ! D154  D(28,27,29,43)       -179.9636         calculate D2E/DX2 analytically  !
 ! D155  D(27,28,30,32)          0.0339         calculate D2E/DX2 analytically  !
 ! D156  D(27,28,30,33)        179.9849         calculate D2E/DX2 analytically  !
 ! D157  D(45,28,30,32)       -179.9761         calculate D2E/DX2 analytically  !
 ! D158  D(45,28,30,33)         -0.0251         calculate D2E/DX2 analytically  !
 ! D159  D(27,28,45,46)       -179.9937         calculate D2E/DX2 analytically  !
 ! D160  D(27,28,45,47)         -0.0007         calculate D2E/DX2 analytically  !
 ! D161  D(30,28,45,46)          0.0163         calculate D2E/DX2 analytically  !
 ! D162  D(30,28,45,47)       -179.9907         calculate D2E/DX2 analytically  !
 ! D163  D(27,29,31,32)          0.0032         calculate D2E/DX2 analytically  !
 ! D164  D(27,29,31,34)       -179.9625         calculate D2E/DX2 analytically  !
 ! D165  D(43,29,31,32)        179.9329         calculate D2E/DX2 analytically  !
 ! D166  D(43,29,31,34)         -0.0327         calculate D2E/DX2 analytically  !
 ! D167  D(27,29,43,41)         -0.0487         calculate D2E/DX2 analytically  !
 ! D168  D(27,29,43,44)        179.9838         calculate D2E/DX2 analytically  !
 ! D169  D(31,29,43,41)       -179.9783         calculate D2E/DX2 analytically  !
 ! D170  D(31,29,43,44)          0.0542         calculate D2E/DX2 analytically  !
 ! D171  D(28,30,32,31)         -0.0641         calculate D2E/DX2 analytically  !
 ! D172  D(28,30,32,57)       -179.9652         calculate D2E/DX2 analytically  !
 ! D173  D(33,30,32,31)        179.9849         calculate D2E/DX2 analytically  !
 ! D174  D(33,30,32,57)          0.0838         calculate D2E/DX2 analytically  !
 ! D175  D(29,31,32,30)          0.0456         calculate D2E/DX2 analytically  !
 ! D176  D(29,31,32,57)        179.9467         calculate D2E/DX2 analytically  !
 ! D177  D(34,31,32,30)       -179.9888         calculate D2E/DX2 analytically  !
 ! D178  D(34,31,32,57)         -0.0877         calculate D2E/DX2 analytically  !
 ! D179  D(30,32,57,58)        149.9666         calculate D2E/DX2 analytically  !
 ! D180  D(30,32,57,59)        -89.9885         calculate D2E/DX2 analytically  !
 ! D181  D(30,32,57,60)         29.9147         calculate D2E/DX2 analytically  !
 ! D182  D(31,32,57,58)        -29.9346         calculate D2E/DX2 analytically  !
 ! D183  D(31,32,57,59)         90.1103         calculate D2E/DX2 analytically  !
 ! D184  D(31,32,57,60)       -149.9865         calculate D2E/DX2 analytically  !
 ! D185  D(13,35,36,22)         -0.0231         calculate D2E/DX2 analytically  !
 ! D186  D(13,35,36,50)       -179.936          calculate D2E/DX2 analytically  !
 ! D187  D(49,35,36,22)        179.9609         calculate D2E/DX2 analytically  !
 ! D188  D(49,35,36,50)          0.048          calculate D2E/DX2 analytically  !
 ! D189  D(23,37,39,12)         -0.1021         calculate D2E/DX2 analytically  !
 ! D190  D(23,37,39,40)        179.98           calculate D2E/DX2 analytically  !
 ! D191  D(38,37,39,12)        179.9945         calculate D2E/DX2 analytically  !
 ! D192  D(38,37,39,40)          0.0766         calculate D2E/DX2 analytically  !
 ! D193  D(24,41,43,29)          0.0213         calculate D2E/DX2 analytically  !
 ! D194  D(24,41,43,44)        179.9888         calculate D2E/DX2 analytically  !
 ! D195  D(42,41,43,29)       -179.9534         calculate D2E/DX2 analytically  !
 ! D196  D(42,41,43,44)          0.0141         calculate D2E/DX2 analytically  !
 ! D197  D(28,45,47,25)          0.003          calculate D2E/DX2 analytically  !
 ! D198  D(28,45,47,48)        179.993          calculate D2E/DX2 analytically  !
 ! D199  D(46,45,47,25)        179.9959         calculate D2E/DX2 analytically  !
 ! D200  D(46,45,47,48)         -0.014          calculate D2E/DX2 analytically  !
 --------------------------------------------------------------------------------
 Trust Radius=3.00D-01 FncErr=1.00D-07 GrdErr=1.00D-06 EigMax=2.50D+02 EigMin=1.00D-04
 Number of steps in this run=    372 maximum allowed number of steps=    372.
 Search for a saddle point of order  1.
 GradGradGradGradGradGradGradGradGradGradGradGradGradGradGradGradGradGrad

 Stoichiometry    C38H22Br2
 Framework group  C1[X(C38H22Br2)]
 Deg. of freedom   180
 Full point group                 C1      NOp   1
 Largest Abelian subgroup         C1      NOp   1
 Largest concise Abelian subgroup C1      NOp   1
                         Standard orientation:                         
 ---------------------------------------------------------------------
 Center     Atomic      Atomic             Coordinates (Angstroms)
 Number     Number       Type             X           Y           Z
 ---------------------------------------------------------------------
      1          6           0        6.606285   -2.169125   -0.666730
      2          6           0        5.790944   -2.979431    0.137598
      3          6           0        4.412930   -2.732830    0.208213
      4          6           0        3.856704   -1.680272   -0.524774
      5          6           0        4.664921   -0.870346   -1.327337
      6          6           0        6.043690   -1.113656   -1.398731
      7          1           0        6.220020   -3.783751    0.696916
      8          1           0        6.665086   -0.496418   -2.012566
      9          6           0        2.350825   -1.412272   -0.446615
     10          6           0        1.794977   -0.358069   -1.179992
     11          6           0        1.542231   -2.223844    0.356336
     12          6           0        0.417462   -0.112791   -1.109342
     13          6           0        0.164717   -1.978566    0.426987
     14          6           0       -0.392010   -0.924685   -0.306036
     15          6           0        3.508023   -3.618076    1.089344
     16          6           0        2.171056   -3.380206    1.157736
     17          6           0        2.700384    0.525855   -2.061088
     18          1           0        2.274318    1.332788   -2.621859
     19          6           0        4.037351    0.287984   -2.129480
     20          1           0        4.719945    0.857772   -2.725225
     21          6           0       -1.897010   -0.656363   -0.228231
     22          6           0       -2.706084   -1.467377    0.574042
     23          6           0       -2.452838    0.397075   -0.962251
     24          6           0       -4.084476   -1.222422    0.645047
     25          6           0       -3.831230    0.642031   -0.891246
     26          6           0       -4.639846   -0.168775   -0.087651
     27          6           0       -6.146181    0.099016   -0.010814
     28          6           0       -6.702429    1.152340   -0.743158
     29          6           0       -6.954377   -0.711676    0.791105
     30          6           0       -8.079544    1.398497   -0.673540
     31          6           0       -8.332290   -0.467277    0.862788
     32          6           0       -8.894884    0.588192    0.130787
     33          1           0       -8.508642    2.203583   -1.232215
     34          1           0       -8.954541   -1.085603    1.476335
     35          6           0       -0.740669   -2.863255    1.307439
     36          6           0       -2.078514   -2.625707    1.376185
     37          6           0       -1.547953    1.283087   -1.842739
     38          1           0       -1.974395    2.088375   -2.403120
     39          6           0       -0.210963    1.044451   -1.911774
     40          1           0        0.408554    1.664011   -2.525326
     41          6           0       -4.989861   -2.107111    1.525499
     42          1           0       -4.562918   -2.913722    2.085916
     43          6           0       -6.326829   -1.869240    1.593891
     44          1           0       -6.946346   -2.488800    2.207443
     45          6           0       -5.796166    2.037351   -1.623964
     46          1           0       -6.223987    2.843640   -2.184027
     47          6           0       -4.459677    1.800038   -1.693035
     48          1           0       -3.840639    2.420155   -2.307266
     49          1           0       -0.314226   -3.668543    1.867821
     50          1           0       -2.697574   -3.245058    1.991059
     51          1           0        3.934466   -4.423365    1.649725
     52          1           0        1.551140   -4.000645    1.772321
     53          6           0        8.119844   -2.438739   -0.744264
     54          1           0        8.622634   -1.879490    0.017255
     55          1           0        8.304448   -3.482784   -0.599724
     56          1           0        8.486512   -2.141173   -1.704546
     57          6           0      -10.409300    0.856718    0.208033
     58          1           0      -10.926074   -0.062263    0.388475
     59          1           0      -10.609266    1.542031    1.005772
     60          1           0      -10.744010    1.279348   -0.716347
     61         35           0        3.812513    1.902213   -0.208556
     62         35           0        4.360636    3.745695    2.120092
 ---------------------------------------------------------------------
 Rotational constants (GHZ):           0.1318245           0.0319143           0.0284971
 Standard basis: 6-31+G(d) (6D, 7F)
 There are   834 symmetry adapted cartesian basis functions of A   symmetry.
 There are   834 symmetry adapted basis functions of A   symmetry.
   834 basis functions,  1478 primitive gaussians,   834 cartesian basis functions
   160 alpha electrons      160 beta electrons
       nuclear repulsion energy      5125.5287504200 Hartrees.
 NAtoms=   62 NActive=   62 NUniq=   62 SFac= 1.00D+00 NAtFMM=   60 NAOKFM=T Big=T
 Integral buffers will be    131072 words long.
 Raffenetti 2 integral format.
 Two-electron integral symmetry is turned on.
 One-electron integrals computed using PRISM.
 NBasis=   834 RedAO= T EigKep=  1.74D-06  NBF=   834
 NBsUse=   802 1.00D-06 EigRej=  8.77D-07 NBFU=   802
 ExpMin= 3.50D-02 ExpMax= 5.74D+05 ExpMxC= 5.74D+03 IAcc=3 IRadAn=         5 AccDes= 0.00D+00
 Harris functional with IExCor=  402 and IRadAn=       5 diagonalized for initial guess.
 HarFok:  IExCor=  402 AccDes= 0.00D+00 IRadAn=         5 IDoV= 1 UseB2=F ITyADJ=14
 ICtDFT=  3500011 ScaDFX=  1.000000  1.000000  1.000000  1.000000
 FoFCou: FMM=F IPFlag=           0 FMFlag=      100000 FMFlg1=        2001
         NFxFlg=           0 DoJE=T BraDBF=F KetDBF=T FulRan=T
         wScrn=  0.000000 ICntrl=       500 IOpCl=  0 I1Cent=   200000004 NGrid=           0
         NMat0=    1 NMatS0=      1 NMatT0=    0 NMatD0=    1 NMtDS0=    0 NMtDT0=    0
 Petite list used in FoFCou.
 Requested convergence on RMS density matrix=1.00D-08 within 128 cycles.
 Requested convergence on MAX density matrix=1.00D-06.
 Requested convergence on             energy=1.00D-06.
 No special actions if energy rises.
 EnCoef did     5 forward-backward iterations
 SCF Done:  E(RB3LYP) =  -6604.79970374     A.U. after   17 cycles
            NFock= 17  Conv=0.54D-08     -V/T= 2.0073
 DoSCS=F DFT=T ScalE2(SS,OS)=  1.000000  1.000000
 Range of M.O.s used for correlation:     1   802
 NBasis=   834 NAE=   160 NBE=   160 NFC=     0 NFV=     0
 NROrb=    802 NOA=   160 NOB=   160 NVA=   642 NVB=   642

 **** Warning!!: The largest alpha MO coefficient is  0.92643115D+02


 **** Warning!!: The smallest alpha delta epsilon is  0.58473864D-01

 PrsmSu:  requested number of processors reduced to:   1 ShMem   1 Linda.
 Symmetrizing basis deriv contribution to polar:
 IMax=3 JMax=2 DiffMx= 0.00D+00
 G2DrvN: will do    21 centers at a time, making    3 passes.
 Calling FoFCou, ICntrl=  3107 FMM=T I1Cent=   0 AccDes= 0.00D+00.
 Calling FoFCou, ICntrl=  3107 FMM=T I1Cent=   0 AccDes= 0.00D+00.
 Calling FoFCou, ICntrl=  3107 FMM=T I1Cent=   0 AccDes= 0.00D+00.
 End of G2Drv F.D. properties file   721 does not exist.
 End of G2Drv F.D. properties file   722 does not exist.
 End of G2Drv F.D. properties file   788 does not exist.
          IDoAtm=11111111111111111111111111111111111111111111111111
          IDoAtm=111111111111
          Differentiating once with respect to nuclear coordinates.
 CalDSu exits because no D1Ps are significant.
          There are   189 degrees of freedom in the 1st order CPHF.  IDoFFX=6 NUNeed=     0.
    186 vectors produced by pass  0 Test12= 1.03D-13 1.00D-09 XBig12= 2.02D-01 1.20D-01.
 AX will form    72 AO Fock derivatives at one time.
    186 vectors produced by pass  1 Test12= 1.03D-13 1.00D-09 XBig12= 4.50D-02 3.18D-02.
    184 vectors produced by pass  2 Test12= 1.03D-13 1.00D-09 XBig12= 5.06D-04 2.96D-03.
    183 vectors produced by pass  3 Test12= 1.03D-13 1.00D-09 XBig12= 2.64D-06 1.86D-04.
    183 vectors produced by pass  4 Test12= 1.03D-13 1.00D-09 XBig12= 6.89D-09 6.64D-06.
    172 vectors produced by pass  5 Test12= 1.03D-13 1.00D-09 XBig12= 1.20D-11 1.92D-07.
     57 vectors produced by pass  6 Test12= 1.03D-13 1.00D-09 XBig12= 1.50D-14 6.09D-09.
      1 vectors produced by pass  7 Test12= 1.03D-13 1.00D-09 XBig12= 1.51D-16 1.15D-09.
 InvSVY:  IOpt=1 It=  1 EMax= 6.66D-16
 Solved reduced A of dimension  1152 with   189 vectors.
 End of Minotr F.D. properties file   721 does not exist.
 End of Minotr F.D. properties file   722 does not exist.
 End of Minotr F.D. properties file   788 does not exist.

 **********************************************************************

            Population analysis using the SCF Density.

 **********************************************************************

 Orbital symmetries:
       Occupied  (A) (A) (A) (A) (A) (A) (A) (A) (A) (A) (A) (A)
                 (A) (A) (A) (A) (A) (A) (A) (A) (A) (A) (A) (A)
                 (A) (A) (A) (A) (A) (A) (A) (A) (A) (A) (A) (A)
                 (A) (A) (A) (A) (A) (A) (A) (A) (A) (A) (A) (A)
                 (A) (A) (A) (A) (A) (A) (A) (A) (A) (A) (A) (A)
                 (A) (A) (A) (A) (A) (A) (A) (A) (A) (A) (A) (A)
                 (A) (A) (A) (A) (A) (A) (A) (A) (A) (A) (A) (A)
                 (A) (A) (A) (A) (A) (A) (A) (A) (A) (A) (A) (A)
                 (A) (A) (A) (A) (A) (A) (A) (A) (A) (A) (A) (A)
                 (A) (A) (A) (A) (A) (A) (A) (A) (A) (A) (A) (A)
                 (A) (A) (A) (A) (A) (A) (A) (A) (A) (A) (A) (A)
                 (A) (A) (A) (A) (A) (A) (A) (A) (A) (A) (A) (A)
                 (A) (A) (A) (A) (A) (A) (A) (A) (A) (A) (A) (A)
                 (A) (A) (A) (A)
       Virtual   (A) (A) (A) (A) (A) (A) (A) (A) (A) (A) (A) (A)
                 (A) (A) (A) (A) (A) (A) (A) (A) (A) (A) (A) (A)
                 (A) (A) (A) (A) (A) (A) (A) (A) (A) (A) (A) (A)
                 (A) (A) (A) (A) (A) (A) (A) (A) (A) (A) (A) (A)
                 (A) (A) (A) (A) (A) (A) (A) (A) (A) (A) (A) (A)
                 (A) (A) (A) (A) (A) (A) (A) (A) (A) (A) (A) (A)
                 (A) (A) (A) (A) (A) (A) (A) (A) (A) (A) (A) (A)
                 (A) (A) (A) (A) (A) (A) (A) (A) (A) (A) (A) (A)
                 (A) (A) (A) (A) (A) (A) (A) (A) (A) (A) (A) (A)
                 (A) (A) (A) (A) (A) (A) (A) (A) (A) (A) (A) (A)
                 (A) (A) (A) (A) (A) (A) (A) (A) (A) (A) (A) (A)
                 (A) (A) (A) (A) (A) (A) (A) (A) (A) (A) (A) (A)
                 (A) (A) (A) (A) (A) (A) (A) (A) (A) (A) (A) (A)
                 (A) (A) (A) (A) (A) (A) (A) (A) (A) (A) (A) (A)
                 (A) (A) (A) (A) (A) (A) (A) (A) (A) (A) (A) (A)
                 (A) (A) (A) (A) (A) (A) (A) (A) (A) (A) (A) (A)
                 (A) (A) (A) (A) (A) (A) (A) (A) (A) (A) (A) (A)
                 (A) (A) (A) (A) (A) (A) (A) (A) (A) (A) (A) (A)
                 (A) (A) (A) (A) (A) (A) (A) (A) (A) (A) (A) (A)
                 (A) (A) (A) (A) (A) (A) (A) (A) (A) (A) (A) (A)
                 (A) (A) (A) (A) (A) (A) (A) (A) (A) (A) (A) (A)
                 (A) (A) (A) (A) (A) (A) (A) (A) (A) (A) (A) (A)
                 (A) (A) (A) (A) (A) (A) (A) (A) (A) (A) (A) (A)
                 (A) (A) (A) (A) (A) (A) (A) (A) (A) (A) (A) (A)
                 (A) (A) (A) (A) (A) (A) (A) (A) (A) (A) (A) (A)
                 (A) (A) (A) (A) (A) (A) (A) (A) (A) (A) (A) (A)
                 (A) (A) (A) (A) (A) (A) (A) (A) (A) (A) (A) (A)
                 (A) (A) (A) (A) (A) (A) (A) (A) (A) (A) (A) (A)
                 (A) (A) (A) (A) (A) (A) (A) (A) (A) (A) (A) (A)
                 (A) (A) (A) (A) (A) (A) (A) (A) (A) (A) (A) (A)
                 (A) (A) (A) (A) (A) (A) (A) (A) (A) (A) (A) (A)
                 (A) (A) (A) (A) (A) (A) (A) (A) (A) (A) (A) (A)
                 (A) (A) (A) (A) (A) (A) (A) (A) (A) (A) (A) (A)
                 (A) (A) (A) (A) (A) (A) (A) (A) (A) (A) (A) (A)
                 (A) (A) (A) (A) (A) (A) (A) (A) (A) (A) (A) (A)
                 (A) (A) (A) (A) (A) (A) (A) (A) (A) (A) (A) (A)
                 (A) (A) (A) (A) (A) (A) (A) (A) (A) (A) (A) (A)
                 (A) (A) (A) (A) (A) (A) (A) (A) (A) (A) (A) (A)
                 (A) (A) (A) (A) (A) (A) (A) (A) (A) (A) (A) (A)
                 (A) (A) (A) (A) (A) (A) (A) (A) (A) (A) (A) (A)
                 (A) (A) (A) (A) (A) (A) (A) (A) (A) (A) (A) (A)
                 (A) (A) (A) (A) (A) (A) (A) (A) (A) (A) (A) (A)
                 (A) (A) (A) (A) (A) (A) (A) (A) (A) (A) (A) (A)
                 (A) (A) (A) (A) (A) (A) (A) (A) (A) (A) (A) (A)
                 (A) (A) (A) (A) (A) (A) (A) (A) (A) (A) (A) (A)
                 (A) (A) (A) (A) (A) (A) (A) (A) (A) (A) (A) (A)
                 (A) (A) (A) (A) (A) (A) (A) (A) (A) (A) (A) (A)
                 (A) (A) (A) (A) (A) (A) (A) (A) (A) (A) (A) (A)
                 (A) (A) (A) (A) (A) (A) (A) (A) (A) (A) (A) (A)
                 (A) (A) (A) (A) (A) (A) (A) (A) (A) (A) (A) (A)
                 (A) (A) (A) (A) (A) (A) (A) (A) (A) (A) (A) (A)
                 (A) (A) (A) (A) (A) (A) (A) (A) (A) (A) (A) (A)
                 (A) (A) (A) (A) (A) (A) (A) (A) (A) (A) (A) (A)
                 (A) (A) (A) (A) (A) (A)
 The electronic state is 1-A.
 Alpha  occ. eigenvalues -- -482.93866-482.86682 -61.89553 -61.82683 -56.41304
 Alpha  occ. eigenvalues --  -56.40814 -56.40769 -56.34551 -56.34187 -56.34186
 Alpha  occ. eigenvalues --  -10.26596 -10.26523 -10.23749 -10.23584 -10.23556
 Alpha  occ. eigenvalues --  -10.23367 -10.23308 -10.23109 -10.23069 -10.22966
 Alpha  occ. eigenvalues --  -10.22942 -10.22663 -10.22640 -10.22587 -10.22570
 Alpha  occ. eigenvalues --  -10.22557 -10.22521 -10.22389 -10.22378 -10.22324
 Alpha  occ. eigenvalues --  -10.22303 -10.22294 -10.22252 -10.22226 -10.22159
 Alpha  occ. eigenvalues --  -10.22151 -10.21818 -10.21796 -10.21767 -10.21718
 Alpha  occ. eigenvalues --  -10.21678 -10.21593 -10.21589 -10.21385 -10.20319
 Alpha  occ. eigenvalues --  -10.20315 -10.19509 -10.19009  -8.59717  -8.53356
 Alpha  occ. eigenvalues --   -6.55144  -6.53563  -6.53455  -6.48609  -6.47404
 Alpha  occ. eigenvalues --   -6.47400  -2.66603  -2.66215  -2.66131  -2.64876
 Alpha  occ. eigenvalues --   -2.64875  -2.60139  -2.59823  -2.59819  -2.58864
 Alpha  occ. eigenvalues --   -2.58864  -0.92048  -0.90639  -0.89010  -0.87451
 Alpha  occ. eigenvalues --   -0.86116  -0.84174  -0.83694  -0.82191  -0.81444
 Alpha  occ. eigenvalues --   -0.79264  -0.78725  -0.78574  -0.77091  -0.76398
 Alpha  occ. eigenvalues --   -0.76119  -0.75302  -0.74526  -0.73717  -0.71977
 Alpha  occ. eigenvalues --   -0.71232  -0.69823  -0.68306  -0.66369  -0.65082
 Alpha  occ. eigenvalues --   -0.64620  -0.64242  -0.63830  -0.63618  -0.62771
 Alpha  occ. eigenvalues --   -0.61502  -0.58776  -0.57784  -0.56349  -0.55307
 Alpha  occ. eigenvalues --   -0.54875  -0.53819  -0.53511  -0.52329  -0.51960
 Alpha  occ. eigenvalues --   -0.51643  -0.50779  -0.49730  -0.48737  -0.48371
 Alpha  occ. eigenvalues --   -0.47946  -0.46333  -0.45947  -0.45177  -0.44877
 Alpha  occ. eigenvalues --   -0.44717  -0.44354  -0.44024  -0.43968  -0.43770
 Alpha  occ. eigenvalues --   -0.43482  -0.43077  -0.42552  -0.42393  -0.42093
 Alpha  occ. eigenvalues --   -0.41784  -0.41345  -0.41002  -0.40528  -0.40227
 Alpha  occ. eigenvalues --   -0.39785  -0.39373  -0.38888  -0.38708  -0.38212
 Alpha  occ. eigenvalues --   -0.37726  -0.36549  -0.36198  -0.35829  -0.34683
 Alpha  occ. eigenvalues --   -0.34542  -0.33942  -0.33644  -0.33614  -0.32685
 Alpha  occ. eigenvalues --   -0.31769  -0.30850  -0.29824  -0.28775  -0.28586
 Alpha  occ. eigenvalues --   -0.28014  -0.26920  -0.26637  -0.26326  -0.25764
 Alpha  occ. eigenvalues --   -0.23801  -0.23747  -0.23557  -0.23491  -0.20953
 Alpha virt. eigenvalues --   -0.15105  -0.09189  -0.06797  -0.05842  -0.05239
 Alpha virt. eigenvalues --   -0.03977  -0.03667  -0.02938  -0.01241  -0.00945
 Alpha virt. eigenvalues --   -0.00866  -0.00358  -0.00061   0.00432   0.00653
 Alpha virt. eigenvalues --    0.01253   0.01475   0.01710   0.02168   0.02387
 Alpha virt. eigenvalues --    0.02443   0.02740   0.03327   0.03366   0.03696
 Alpha virt. eigenvalues --    0.03977   0.04328   0.04691   0.04856   0.04993
 Alpha virt. eigenvalues --    0.05308   0.05393   0.05771   0.05897   0.06011
 Alpha virt. eigenvalues --    0.06199   0.06327   0.06921   0.07163   0.07430
 Alpha virt. eigenvalues --    0.07760   0.08145   0.08219   0.08416   0.08924
 Alpha virt. eigenvalues --    0.09126   0.09403   0.09559   0.09688   0.09796
 Alpha virt. eigenvalues --    0.10052   0.10195   0.10276   0.10827   0.10970
 Alpha virt. eigenvalues --    0.11231   0.11341   0.11494   0.11790   0.11887
 Alpha virt. eigenvalues --    0.12120   0.12429   0.12557   0.13071   0.13290
 Alpha virt. eigenvalues --    0.13451   0.13542   0.13593   0.13803   0.13980
 Alpha virt. eigenvalues --    0.14173   0.14514   0.14729   0.14789   0.15083
 Alpha virt. eigenvalues --    0.15441   0.15568   0.15861   0.16040   0.16243
 Alpha virt. eigenvalues --    0.16308   0.16351   0.16640   0.16704   0.16974
 Alpha virt. eigenvalues --    0.16984   0.17216   0.17351   0.17579   0.17662
 Alpha virt. eigenvalues --    0.17905   0.17999   0.18106   0.18443   0.18745
 Alpha virt. eigenvalues --    0.18974   0.19204   0.19482   0.19638   0.19946
 Alpha virt. eigenvalues --    0.20051   0.20256   0.20370   0.20534   0.20731
 Alpha virt. eigenvalues --    0.21035   0.21415   0.21472   0.21751   0.22132
 Alpha virt. eigenvalues --    0.22339   0.22527   0.22597   0.22819   0.22963
 Alpha virt. eigenvalues --    0.23102   0.23402   0.23435   0.23567   0.23652
 Alpha virt. eigenvalues --    0.23861   0.24036   0.24216   0.24478   0.24866
 Alpha virt. eigenvalues --    0.25040   0.25347   0.25491   0.25654   0.25770
 Alpha virt. eigenvalues --    0.25873   0.26187   0.26330   0.26400   0.26663
 Alpha virt. eigenvalues --    0.26739   0.26811   0.26874   0.27201   0.27482
 Alpha virt. eigenvalues --    0.27668   0.27752   0.28278   0.28454   0.28467
 Alpha virt. eigenvalues --    0.28818   0.29219   0.29429   0.29528   0.29943
 Alpha virt. eigenvalues --    0.30025   0.30145   0.30323   0.30580   0.30766
 Alpha virt. eigenvalues --    0.30943   0.31358   0.31531   0.31669   0.32428
 Alpha virt. eigenvalues --    0.32807   0.32952   0.33073   0.33471   0.33542
 Alpha virt. eigenvalues --    0.34192   0.34522   0.34873   0.35107   0.35554
 Alpha virt. eigenvalues --    0.35674   0.36096   0.36720   0.37051   0.37347
 Alpha virt. eigenvalues --    0.37906   0.38023   0.38443   0.38935   0.39664
 Alpha virt. eigenvalues --    0.40173   0.40544   0.40816   0.41325   0.41583
 Alpha virt. eigenvalues --    0.41672   0.42411   0.43129   0.43312   0.43803
 Alpha virt. eigenvalues --    0.44403   0.44820   0.44917   0.45789   0.45988
 Alpha virt. eigenvalues --    0.46204   0.46270   0.47281   0.47549   0.48171
 Alpha virt. eigenvalues --    0.48282   0.49154   0.49500   0.50064   0.50566
 Alpha virt. eigenvalues --    0.51183   0.51690   0.52500   0.52977   0.52986
 Alpha virt. eigenvalues --    0.53439   0.53876   0.55413   0.55599   0.56061
 Alpha virt. eigenvalues --    0.56229   0.57009   0.57681   0.58588   0.59114
 Alpha virt. eigenvalues --    0.60247   0.61164   0.61619   0.62009   0.62549
 Alpha virt. eigenvalues --    0.63707   0.63754   0.64916   0.65068   0.65302
 Alpha virt. eigenvalues --    0.65884   0.66003   0.66580   0.66977   0.67721
 Alpha virt. eigenvalues --    0.67818   0.68200   0.68510   0.69046   0.69156
 Alpha virt. eigenvalues --    0.69456   0.69665   0.69909   0.70262   0.70522
 Alpha virt. eigenvalues --    0.70608   0.70777   0.70912   0.71131   0.71156
 Alpha virt. eigenvalues --    0.71228   0.71462   0.71558   0.71675   0.72032
 Alpha virt. eigenvalues --    0.72254   0.72941   0.73297   0.73370   0.73578
 Alpha virt. eigenvalues --    0.73828   0.73974   0.74984   0.75129   0.75419
 Alpha virt. eigenvalues --    0.75809   0.76113   0.76305   0.76439   0.76606
 Alpha virt. eigenvalues --    0.76820   0.77346   0.77427   0.77543   0.77781
 Alpha virt. eigenvalues --    0.78075   0.78523   0.78787   0.79040   0.79263
 Alpha virt. eigenvalues --    0.79812   0.80460   0.80764   0.80990   0.81136
 Alpha virt. eigenvalues --    0.82485   0.82831   0.83053   0.83380   0.83811
 Alpha virt. eigenvalues --    0.84506   0.84891   0.85294   0.85457   0.87037
 Alpha virt. eigenvalues --    0.87671   0.88773   0.89021   0.89355   0.89832
 Alpha virt. eigenvalues --    0.90231   0.91185   0.91530   0.92010   0.92493
 Alpha virt. eigenvalues --    0.93030   0.94069   0.94698   0.95088   0.95509
 Alpha virt. eigenvalues --    0.95632   0.96653   0.97836   0.98293   1.00135
 Alpha virt. eigenvalues --    1.00549   1.01360   1.01843   1.02149   1.02416
 Alpha virt. eigenvalues --    1.02530   1.02989   1.03743   1.04485   1.04666
 Alpha virt. eigenvalues --    1.05148   1.05741   1.06518   1.08209   1.08966
 Alpha virt. eigenvalues --    1.09749   1.10629   1.11518   1.12641   1.13420
 Alpha virt. eigenvalues --    1.13701   1.13854   1.14062   1.14290   1.14832
 Alpha virt. eigenvalues --    1.15703   1.15842   1.16039   1.16640   1.17012
 Alpha virt. eigenvalues --    1.17202   1.17468   1.18033   1.18320   1.18622
 Alpha virt. eigenvalues --    1.18877   1.18945   1.19350   1.19542   1.20060
 Alpha virt. eigenvalues --    1.20197   1.21179   1.21776   1.21994   1.22571
 Alpha virt. eigenvalues --    1.22801   1.23407   1.23751   1.24172   1.24329
 Alpha virt. eigenvalues --    1.24869   1.25769   1.26763   1.27858   1.28600
 Alpha virt. eigenvalues --    1.28938   1.29595   1.30032   1.30611   1.31199
 Alpha virt. eigenvalues --    1.32796   1.33121   1.33765   1.34064   1.34472
 Alpha virt. eigenvalues --    1.35123   1.35314   1.36676   1.37550   1.37791
 Alpha virt. eigenvalues --    1.38765   1.38904   1.39352   1.39511   1.39795
 Alpha virt. eigenvalues --    1.39909   1.41107   1.42899   1.44348   1.44666
 Alpha virt. eigenvalues --    1.45061   1.45253   1.45481   1.45667   1.45754
 Alpha virt. eigenvalues --    1.45972   1.46187   1.46251   1.47058   1.47330
 Alpha virt. eigenvalues --    1.47483   1.48217   1.48675   1.50760   1.51328
 Alpha virt. eigenvalues --    1.52240   1.52563   1.54006   1.54583   1.54928
 Alpha virt. eigenvalues --    1.55958   1.56187   1.56630   1.57161   1.58283
 Alpha virt. eigenvalues --    1.61843   1.62323   1.64447   1.66634   1.67680
 Alpha virt. eigenvalues --    1.68819   1.68982   1.71324   1.71862   1.73105
 Alpha virt. eigenvalues --    1.73375   1.74223   1.75269   1.76100   1.76325
 Alpha virt. eigenvalues --    1.77354   1.78142   1.79176   1.79990   1.80833
 Alpha virt. eigenvalues --    1.81049   1.81378   1.81555   1.81725   1.81927
 Alpha virt. eigenvalues --    1.82765   1.83646   1.84503   1.84875   1.85535
 Alpha virt. eigenvalues --    1.86190   1.86222   1.86961   1.87203   1.87692
 Alpha virt. eigenvalues --    1.88162   1.88703   1.89050   1.89185   1.89858
 Alpha virt. eigenvalues --    1.90507   1.91021   1.91729   1.91958   1.92222
 Alpha virt. eigenvalues --    1.92546   1.92796   1.95291   1.96146   1.96959
 Alpha virt. eigenvalues --    1.97143   1.97262   1.97763   1.98134   1.99161
 Alpha virt. eigenvalues --    1.99247   1.99766   2.01561   2.02095   2.02146
 Alpha virt. eigenvalues --    2.02448   2.03446   2.05220   2.05824   2.05905
 Alpha virt. eigenvalues --    2.06384   2.09017   2.10745   2.11070   2.12468
 Alpha virt. eigenvalues --    2.15559   2.16982   2.17360   2.20801   2.21451
 Alpha virt. eigenvalues --    2.21618   2.21875   2.21954   2.22697   2.23544
 Alpha virt. eigenvalues --    2.24218   2.24397   2.24860   2.25382   2.25585
 Alpha virt. eigenvalues --    2.25878   2.26364   2.26889   2.28179   2.28537
 Alpha virt. eigenvalues --    2.28885   2.30830   2.31019   2.31777   2.32100
 Alpha virt. eigenvalues --    2.32495   2.32905   2.33703   2.35093   2.35402
 Alpha virt. eigenvalues --    2.35556   2.36066   2.36761   2.37012   2.37807
 Alpha virt. eigenvalues --    2.38238   2.38965   2.39021   2.39451   2.39617
 Alpha virt. eigenvalues --    2.39677   2.40634   2.41658   2.42076   2.42417
 Alpha virt. eigenvalues --    2.43015   2.43660   2.47813   2.51080   2.52001
 Alpha virt. eigenvalues --    2.52705   2.56576   2.57969   2.58329   2.58487
 Alpha virt. eigenvalues --    2.59615   2.60858   2.62529   2.63893   2.64663
 Alpha virt. eigenvalues --    2.65750   2.66614   2.67303   2.68158   2.69621
 Alpha virt. eigenvalues --    2.69927   2.71814   2.73036   2.73846   2.74698
 Alpha virt. eigenvalues --    2.75170   2.76338   2.76751   2.77634   2.80082
 Alpha virt. eigenvalues --    2.80331   2.80714   2.81283   2.84172   2.85126
 Alpha virt. eigenvalues --    2.86117   2.86715   2.88217   2.88813   2.90225
 Alpha virt. eigenvalues --    2.90491   2.90733   2.92534   2.93639   2.94464
 Alpha virt. eigenvalues --    2.97349   3.00496   3.00678   3.01270   3.02170
 Alpha virt. eigenvalues --    3.02376   3.08894   3.12279   3.12783   3.15221
 Alpha virt. eigenvalues --    3.17103   3.17363   3.20145   3.26077   3.30364
 Alpha virt. eigenvalues --    3.37559   3.39523   3.47065   3.49947   3.57956
 Alpha virt. eigenvalues --    4.15167   4.18360   4.19523   4.20792   4.23021
 Alpha virt. eigenvalues --    4.24117   4.24259   4.27470   4.29079   4.29461
 Alpha virt. eigenvalues --    4.30629   4.32305   4.32735   4.33888   4.35161
 Alpha virt. eigenvalues --    4.36108   4.36627   4.37112   4.38558   4.39866
 Alpha virt. eigenvalues --    4.43087   4.44145   4.45087   4.45961   4.46971
 Alpha virt. eigenvalues --    4.47700   4.48416   4.48979   4.49558   4.53701
 Alpha virt. eigenvalues --    4.54878   4.58744   4.60920   4.64720   4.69449
 Alpha virt. eigenvalues --    4.77263   4.86275   4.93663   8.81031   8.97490
 Alpha virt. eigenvalues --   75.98396  80.43838
          Condensed to atoms (all electrons):
 Mulliken charges:
               1
     1  C    0.274567
     2  C   -0.249614
     3  C    0.306970
     4  C   -0.054765
     5  C    0.344325
     6  C   -0.180684
     7  H    0.184914
     8  H    0.182368
     9  C    0.124383
    10  C    0.330414
    11  C    0.312037
    12  C    0.589936
    13  C    0.504597
    14  C    0.149948
    15  C   -0.523329
    16  C   -0.721685
    17  C   -0.766177
    18  H    0.214592
    19  C   -0.627617
    20  H    0.228223
    21  C    0.129961
    22  C    0.501695
    23  C    0.491944
    24  C    0.286129
    25  C    0.277968
    26  C    0.081474
    27  C   -0.053226
    28  C    0.299708
    29  C    0.291656
    30  C   -0.250967
    31  C   -0.261663
    32  C    0.333885
    33  H    0.179484
    34  H    0.179158
    35  C   -0.675235
    36  C   -0.659685
    37  C   -0.665146
    38  H    0.182511
    39  C   -0.663837
    40  H    0.173094
    41  C   -0.725549
    42  H    0.177928
    43  C   -0.522301
    44  H    0.186756
    45  C   -0.519552
    46  H    0.187243
    47  C   -0.722325
    48  H    0.178652
    49  H    0.179797
    50  H    0.181570
    51  H    0.189439
    52  H    0.181885
    53  C   -0.355716
    54  H    0.240424
    55  H    0.213255
    56  H    0.213183
    57  C   -0.357366
    58  H    0.212120
    59  H    0.233297
    60  H    0.212225
    61  Br  -0.030361
    62  Br  -0.356914
 Sum of Mulliken charges =  -0.00000
 Mulliken charges with hydrogens summed into heavy atoms:
               1
     1  C    0.274567
     2  C   -0.064700
     3  C    0.306970
     4  C   -0.054765
     5  C    0.344325
     6  C    0.001684
     9  C    0.124383
    10  C    0.330414
    11  C    0.312037
    12  C    0.589936
    13  C    0.504597
    14  C    0.149948
    15  C   -0.333890
    16  C   -0.539799
    17  C   -0.551586
    19  C   -0.399394
    21  C    0.129961
    22  C    0.501695
    23  C    0.491944
    24  C    0.286129
    25  C    0.277968
    26  C    0.081474
    27  C   -0.053226
    28  C    0.299708
    29  C    0.291656
    30  C   -0.071483
    31  C   -0.082505
    32  C    0.333885
    35  C   -0.495438
    36  C   -0.478116
    37  C   -0.482634
    39  C   -0.490743
    41  C   -0.547621
    43  C   -0.335544
    45  C   -0.332308
    47  C   -0.543673
    53  C    0.311146
    57  C    0.300276
    61  Br  -0.030361
    62  Br  -0.356914
 APT charges:
               1
     1  C    3.284259
     2  C   -0.681615
     3  C   -0.178053
     4  C   -1.197608
     5  C   -0.323216
     6  C   -0.860946
     7  H    1.030123
     8  H    0.899963
     9  C   -0.419353
    10  C   -0.070594
    11  C   -0.371777
    12  C    0.161077
    13  C    0.151956
    14  C   -0.415209
    15  C    0.122488
    16  C   -1.283452
    17  C   -1.091528
    18  H    0.491029
    19  C   -0.351945
    20  H    1.015592
    21  C   -0.451349
    22  C    0.226015
    23  C    0.135511
    24  C   -0.596939
    25  C   -0.633831
    26  C   -0.503319
    27  C   -1.421686
    28  C   -0.368381
    29  C   -0.137821
    30  C   -0.887782
    31  C   -0.786793
    32  C    4.113859
    33  H    1.024612
    34  H    1.157649
    35  C   -1.200687
    36  C   -0.836272
    37  C   -0.753349
    38  H    0.728567
    39  C   -1.039290
    40  H    0.592047
    41  C   -1.544735
    42  H    0.462180
    43  C    0.704020
    44  H    1.153490
    45  C    0.801296
    46  H    1.008255
    47  C   -1.450820
    48  H    0.321242
    49  H    0.742835
    50  H    0.871500
    51  H    1.035141
    52  H    0.592993
    53  C   -3.102502
    54  H    0.571905
    55  H    0.797824
    56  H    0.677789
    57  C   -3.659733
    58  H    0.857638
    59  H    0.613022
    60  H    0.739621
    61  Br  -0.272673
    62  Br  -0.192239
 Sum of APT charges =  -0.00000
 APT charges with hydrogens summed into heavy atoms:
               1
     1  C    3.284259
     2  C    0.348508
     3  C   -0.178053
     4  C   -1.197608
     5  C   -0.323216
     6  C    0.039017
     9  C   -0.419353
    10  C   -0.070594
    11  C   -0.371777
    12  C    0.161077
    13  C    0.151956
    14  C   -0.415209
    15  C    1.157629
    16  C   -0.690459
    17  C   -0.600500
    19  C    0.663646
    21  C   -0.451349
    22  C    0.226015
    23  C    0.135511
    24  C   -0.596939
    25  C   -0.633831
    26  C   -0.503319
    27  C   -1.421686
    28  C   -0.368381
    29  C   -0.137821
    30  C    0.136830
    31  C    0.370856
    32  C    4.113859
    35  C   -0.457852
    36  C    0.035229
    37  C   -0.024782
    39  C   -0.447242
    41  C   -1.082555
    43  C    1.857510
    45  C    1.809551
    47  C   -1.129578
    53  C   -1.054984
    57  C   -1.449451
    61  Br  -0.272673
    62  Br  -0.192239
 Electronic spatial extent (au):  <R**2>=          35197.0427
 Charge=             -0.0000 electrons
 Dipole moment (field-independent basis, Debye):
    X=             -4.1649    Y=             -6.9819    Z=             -4.6787  Tot=              9.3800
 Quadrupole moment (field-independent basis, Debye-Ang):
   XX=           -211.3424   YY=           -260.2366   ZZ=           -251.7814
   XY=            -37.9044   XZ=            -25.6002   YZ=            -33.3910
 Traceless Quadrupole moment (field-independent basis, Debye-Ang):
   XX=             29.7777   YY=            -19.1165   ZZ=            -10.6613
   XY=            -37.9044   XZ=            -25.6002   YZ=            -33.3910
 Octapole moment (field-independent basis, Debye-Ang**2):
  XXX=             53.4452  YYY=             66.6573  ZZZ=             33.2285  XYY=              3.7256
  XXY=            -92.3041  XXZ=            -54.7717  XZZ=             87.3694  YZZ=             55.8268
  YYZ=             20.2768  XYZ=            -13.3568
 Hexadecapole moment (field-independent basis, Debye-Ang**3):
 XXXX=         -32607.2463 YYYY=          -6600.8871 ZZZZ=          -2607.3665 XXXY=           -631.1583
 XXXZ=           -600.0037 YYYX=            212.9274 YYYZ=           -146.3569 ZZZX=            126.3920
 ZZZY=             97.4914 XXYY=          -7316.5452 XXZZ=          -6663.2156 YYZZ=          -1438.1804
 XXYZ=           -573.1920 YYXZ=             33.7794 ZZXY=            214.7889
 N-N= 5.125528750420D+03 E-N=-2.589669748635D+04  KE= 6.557153609353D+03
  Exact polarizability:       0.000       0.000       0.000       0.000       0.000       0.000
 Approx polarizability:    1531.613      30.026    1078.121      18.149      39.533     882.162
 Calling FoFJK, ICntrl=    100127 FMM=F ISym2X=0 I1Cent= 0 IOpClX= 0 NMat=1 NMatS=1 NMatT=0.
 ***** Axes restored to original set *****
 -------------------------------------------------------------------
 Center     Atomic                   Forces (Hartrees/Bohr)
 Number     Number              X              Y              Z
 -------------------------------------------------------------------
      1        6          -0.010239926   -0.012314109   -0.005735325
      2        6           0.020872482   -0.006068694    0.005710927
      3        6          -0.035654135    0.042878697   -0.005331581
      4        6           0.030516386    0.048290438    0.010048091
      5        6           0.043008831   -0.016235649    0.004526470
      6        6          -0.006529384    0.018931443   -0.000580289
      7        1          -0.012081595    0.001050803   -0.003367715
      8        1           0.005356286   -0.011578370    0.000988040
      9        6          -0.031221220   -0.045370612   -0.011104730
     10        6           0.031212417   -0.045058564   -0.003037641
     11        6          -0.054498238    0.007272392   -0.015424701
     12        6           0.057293209   -0.013504119    0.012919139
     13        6          -0.028954366    0.050009444   -0.003789779
     14        6           0.029111228    0.046679389    0.011586930
     15        6           0.042843027   -0.030800987    0.008449950
     16        6           0.041340422   -0.028840356    0.009639133
     17        6          -0.023099304    0.060486540    0.000853171
     18        1           0.006858485    0.000182672   -0.000054344
     19        6          -0.073654684   -0.004275507   -0.012004509
     20        1           0.008795615   -0.008036557   -0.001033690
     21        6          -0.029691669   -0.047424628   -0.010630143
     22        6          -0.055092296    0.012219443   -0.013268625
     23        6           0.031071922   -0.047463683    0.006465197
     24        6          -0.031444207    0.047736723   -0.006007578
     25        6           0.054351289   -0.012720224    0.013560066
     26        6           0.031193891    0.047724243    0.010433822
     27        6          -0.031707495   -0.049429207   -0.011194459
     28        6           0.036303430   -0.041907483    0.007626466
     29        6          -0.050952317    0.019959530   -0.011567749
     30        6          -0.019653540    0.004431541   -0.004383194
     31        6           0.010645075   -0.016610318    0.002256186
     32        6           0.009312898    0.013484575    0.001457795
     33        1           0.012226108   -0.001079985    0.002823941
     34        1          -0.005260421    0.010811534   -0.001067440
     35        6           0.042290264   -0.030142920    0.008853959
     36        6           0.044018544   -0.030787141    0.009800763
     37        6          -0.044025358    0.030432126   -0.010238978
     38        1           0.007354511   -0.000095892    0.002128969
     39        6          -0.043280645    0.029243084   -0.007891783
     40        1           0.003282195   -0.007350209    0.000503594
     41        6           0.041164067   -0.028984356    0.009164411
     42        1          -0.006736740   -0.000056826   -0.001684488
     43        6           0.043396437   -0.029699482    0.009315442
     44        1          -0.001202352    0.012793899    0.000465292
     45        6          -0.041511724    0.031044529   -0.009351701
     46        1           0.010940978    0.003604015    0.003119860
     47        6          -0.041723691    0.029055737   -0.009658225
     48        1           0.002647487   -0.007134780    0.000381563
     49        1          -0.007452111   -0.000129548   -0.001866652
     50        1          -0.002747645    0.007013020   -0.000283146
     51        1          -0.011658708   -0.003780686   -0.003121518
     52        1          -0.002326252    0.006395595   -0.000112771
     53        6           0.019616787    0.029106387    0.005391123
     54        1          -0.008791774   -0.008258215    0.014006901
     55        1          -0.013380123    0.000628100   -0.010837115
     56        1           0.007724499   -0.014208561   -0.006116499
     57        6          -0.018605582   -0.029778212   -0.007560663
     58        1          -0.004234007    0.015314196   -0.007648801
     59        1           0.000807459    0.006738518    0.017222252
     60        1           0.017090170    0.000289623   -0.002868412
     61       35          -0.002609187   -0.007624336    0.037540724
     62       35           0.007374298    0.002941979   -0.028415935
 -------------------------------------------------------------------
 Cartesian Forces:  Max     0.073654684 RMS     0.023910123
 FormGI is forming the generalized inverse of G from B-inverse, IUseBI=4.

 GradGradGradGradGradGradGradGradGradGradGradGradGradGradGradGradGradGrad
 Berny optimization.
 Internal  Forces:  Max     0.052333859 RMS     0.010453460
 Search for a saddle point.
 Step number   1 out of a maximum of  372
 All quantities printed in internal units (Hartrees-Bohrs-Radians)
 Swapping is turned off.
 Second derivative matrix not updated -- analytic derivatives used.
 ITU=  0
     Eigenvalues ---   -0.01129  -0.00828  -0.00518  -0.00501  -0.00010
     Eigenvalues ---   -0.00001   0.00060   0.00079   0.00212   0.00357
[...]
   D26       -3.13425   0.00007   0.00000  -0.00415  -0.00414  -3.13839
   D27        0.01262  -0.00023   0.00000  -0.01765  -0.01760  -0.00498
   D28        3.09782   0.00005   0.00000   0.02460   0.02456   3.12238
   D29       -3.13545  -0.00008   0.00000  -0.00213  -0.00202  -3.13748
   D30       -0.05025   0.00020   0.00000   0.04012   0.04014  -0.01011
   D31        3.12815   0.00016   0.00000   0.00719   0.00721   3.13536
   D32       -0.03262   0.00002   0.00000  -0.01053  -0.01048  -0.04310
   D33       -0.00683   0.00001   0.00000  -0.00866  -0.00871  -0.01554
   D34        3.11558  -0.00013   0.00000  -0.02638  -0.02640   3.08919
   D35       -0.00443   0.00024   0.00000   0.03223   0.03216   0.02774
   D36        3.13290   0.00019   0.00000   0.02397   0.02396  -3.12633
   D37       -3.08740  -0.00002   0.00000  -0.01155  -0.01162  -3.09902
   D38        0.04993  -0.00008   0.00000  -0.01981  -0.01983   0.03010
   D39        0.06124  -0.00025   0.00000  -0.05536  -0.05536   0.00589
   D40       -3.03246  -0.00009   0.00000  -0.01796  -0.01779  -3.05024
   D41        1.53527  -0.00030   0.00000  -0.02149  -0.02109   1.51418
   D42       -3.13788   0.00002   0.00000  -0.01232  -0.01236   3.13295
   D43        0.05161   0.00017   0.00000   0.02508   0.02521   0.07682
   D44       -1.66385  -0.00003   0.00000   0.02155   0.02191  -1.64194
   D45       -3.08743  -0.00021   0.00000  -0.02335  -0.02330  -3.11072
   D46        0.05321  -0.00007   0.00000  -0.00853  -0.00856   0.04465
   D47        0.07348  -0.00007   0.00000  -0.00548  -0.00544   0.06803
   D48       -3.06907   0.00006   0.00000   0.00934   0.00930  -3.05978
   D49       -3.12882   0.00017   0.00000   0.00813   0.00813  -3.12068
   D50        0.03888   0.00002   0.00000   0.00912   0.00912   0.04800
   D51       -0.00650   0.00003   0.00000  -0.00973  -0.00972  -0.01623
   D52       -3.12200  -0.00012   0.00000  -0.00873  -0.00874  -3.13073
   D53       -0.09813   0.00004   0.00000   0.01888   0.01883  -0.07930
   D54        3.02732   0.00009   0.00000   0.03326   0.03320   3.06052
   D55        3.04446  -0.00010   0.00000   0.00343   0.00351   3.04797
   D56       -0.11328  -0.00005   0.00000   0.01780   0.01788  -0.09540
   D57        3.02735   0.00007   0.00000   0.02472   0.02489   3.05224
   D58       -0.04343   0.00001   0.00000  -0.00657  -0.00671  -0.05014
   D59       -1.51225   0.00013   0.00000   0.03072   0.03095  -1.48130
   D60       -0.11523   0.00020   0.00000   0.03989   0.04001  -0.07521
   D61        3.09718   0.00015   0.00000   0.00860   0.00841   3.10559
   D62        1.62836   0.00027   0.00000   0.04589   0.04607   1.67443
   D63       -0.03584   0.00002   0.00000   0.01123   0.01123  -0.02461
   D64        3.09295   0.00014   0.00000   0.03500   0.03498   3.12793
   D65        3.07847   0.00018   0.00000   0.01020   0.01021   3.08868
   D66       -0.07593   0.00030   0.00000   0.03397   0.03397  -0.04196
   D67       -0.02788   0.00010   0.00000   0.00179   0.00176  -0.02612
   D68        3.10880   0.00010   0.00000   0.01136   0.01136   3.12016
   D69        3.14065  -0.00006   0.00000   0.00278   0.00273  -3.13981
   D70       -0.00586  -0.00006   0.00000   0.01235   0.01233   0.00648
   D71        0.05593   0.00002   0.00000  -0.01708  -0.01704   0.03889
   D72       -3.08809  -0.00015   0.00000  -0.02216  -0.02216  -3.11025
   D73       -3.07014  -0.00003   0.00000  -0.03093  -0.03085  -3.10099
   D74        0.06902  -0.00020   0.00000  -0.03601  -0.03597   0.03304
   D75        3.08727   0.00015   0.00000   0.02405   0.02410   3.11137
   D76       -0.08469   0.00018   0.00000   0.04428   0.04433  -0.04036
   D77       -0.07016   0.00020   0.00000   0.03821   0.03820  -0.03196
   D78        3.04107   0.00023   0.00000   0.05845   0.05842   3.09949
   D79        0.01125  -0.00005   0.00000   0.00215   0.00211   0.01336
   D80       -3.12790   0.00013   0.00000   0.00724   0.00723  -3.12067
   D81       -3.11808  -0.00015   0.00000  -0.02060  -0.02066  -3.13874
   D82        0.02596   0.00002   0.00000  -0.01551  -0.01554   0.01041
   D83       -3.13632  -0.00020   0.00000  -0.01832  -0.01831   3.12856
   D84       -0.01054  -0.00003   0.00000  -0.00265  -0.00264  -0.01318
   D85       -0.00720  -0.00009   0.00000   0.00482   0.00485  -0.00235
   D86        3.11858   0.00008   0.00000   0.02049   0.02051   3.13910
   D87        3.10995   0.00029   0.00000   0.02677   0.02682   3.13677
   D88       -0.00106  -0.00006   0.00000  -0.01002  -0.00999  -0.01105
   D89       -0.03410   0.00012   0.00000   0.02166   0.02167  -0.01243
   D90        3.13808  -0.00024   0.00000  -0.01513  -0.01515   3.12293
   D91        0.00926  -0.00026   0.00000  -0.01165  -0.01164  -0.00238
   D92       -3.12749  -0.00026   0.00000  -0.02109  -0.02111   3.13458
   D93       -3.14151  -0.00004   0.00000   0.00279   0.00284  -3.13868
   D94        0.00492  -0.00004   0.00000  -0.00665  -0.00663  -0.00171
   D95       -0.01459   0.00016   0.00000   0.03937   0.03950   0.02491
   D96        3.07868   0.00000   0.00000   0.00157   0.00154   3.08022
   D97       -3.08652   0.00011   0.00000   0.00845   0.00837  -3.07816
   D98        0.00675  -0.00004   0.00000  -0.02935  -0.02960  -0.02285
   D99       -0.97702   0.00025   0.00000   0.04155   0.04340  -0.93361
   D100       1.13974   0.00004   0.00000   0.04260   0.04430   1.18404
   D101       0.95439   0.00025   0.00000  -0.03026  -0.02868   0.92571
   D102      -1.13970   0.00012   0.00000  -0.03145  -0.02977  -1.16947
   D103      -3.11581  -0.00030   0.00000  -0.02186  -0.02185  -3.13766
   D104       0.02240  -0.00018   0.00000  -0.01630  -0.01631   0.00610
   D105      -0.00474   0.00006   0.00000   0.01491   0.01487   0.01013
   D106       3.13348   0.00018   0.00000   0.02047   0.02041  -3.12930
   D107       3.09443   0.00031   0.00000   0.04207   0.04213   3.13656
   D108      -0.06685   0.00029   0.00000   0.05352   0.05359  -0.01326
   D109      -0.01666  -0.00004   0.00000   0.00538   0.00542  -0.01125
   D110       3.10525  -0.00007   0.00000   0.01683   0.01688   3.12213
   D111       0.02237  -0.00006   0.00000  -0.02716  -0.02714  -0.00477
   D112      -3.12255  -0.00009   0.00000  -0.02705  -0.02705   3.13359
   D113      -3.11570  -0.00018   0.00000  -0.03296  -0.03292   3.13457
   D114       0.02257  -0.00020   0.00000  -0.03286  -0.03283  -0.01026
   D115      -0.00365   0.00011   0.00000   0.00570   0.00569   0.00203
   D116      -3.13518  -0.00004   0.00000  -0.01031  -0.01030   3.13770
   D117       3.13450   0.00023   0.00000   0.01137   0.01133  -3.13736
   D118       0.00297   0.00008   0.00000  -0.00464  -0.00466  -0.00169
   D119       0.02019   0.00001   0.00000  -0.01320  -0.01320   0.00699
   D120      -3.10775  -0.00008   0.00000  -0.02959  -0.02960  -3.13736
   D121      -3.10088   0.00004   0.00000  -0.02515  -0.02516  -3.12604
   D122       0.05436  -0.00005   0.00000  -0.04154  -0.04156   0.01280
   D123      -3.05903  -0.00015   0.00000  -0.05591  -0.05592  -3.11495
   D124       0.06845  -0.00031   0.00000  -0.05324  -0.05324   0.01521
   D125       0.06251  -0.00017   0.00000  -0.04423  -0.04423   0.01827
   D126      -3.09320  -0.00034   0.00000  -0.04156  -0.04155  -3.13475
   D127      -0.01882   0.00003   0.00000   0.01931   0.01931   0.00048
   D128       3.13149  -0.00001   0.00000   0.00947   0.00946   3.14096
   D129       3.12594   0.00006   0.00000   0.01922   0.01922  -3.13802
   D130      -0.00692   0.00001   0.00000   0.00938   0.00938   0.00245
   D131       0.01492  -0.00005   0.00000  -0.01648  -0.01647  -0.00155
   D132      -3.13393   0.00002   0.00000  -0.00748  -0.00747  -3.14140
   D133      -3.12994  -0.00007   0.00000  -0.01638  -0.01638   3.13686
   D134       0.00439  -0.00000   0.00000  -0.00738  -0.00739  -0.00299
   D135      -0.00240  -0.00001   0.00000   0.00083   0.00081  -0.00159
   D136       3.13047   0.00004   0.00000   0.01066   0.01065   3.14112
   D137       3.12614   0.00008   0.00000   0.01651   0.01650  -3.14055
   D138      -0.02418   0.00012   0.00000   0.02634   0.02634   0.00216
   D139      -3.13970   0.00002   0.00000  -0.00068  -0.00067  -3.14037
   D140       0.01115   0.00002   0.00000  -0.00881  -0.00881   0.00234
   D141       0.01532  -0.00007   0.00000  -0.01681  -0.01680  -0.00149
   D142      -3.11701  -0.00007   0.00000  -0.02494  -0.02494   3.14123
   D143      -3.13479  -0.00003   0.00000  -0.00742  -0.00741   3.14098
   D144       0.00439  -0.00002   0.00000  -0.00528  -0.00527  -0.00088
   D145       0.01546  -0.00007   0.00000  -0.01718  -0.01719  -0.00172
   D146      -3.12853  -0.00007   0.00000  -0.01505  -0.01505   3.13960
   D147      -3.14137  -0.00003   0.00000  -0.00149  -0.00149   3.14033
   D148       0.00288  -0.00003   0.00000  -0.00237  -0.00237   0.00051
   D149       0.00258  -0.00004   0.00000  -0.00358  -0.00358  -0.00100
   D150      -3.13635  -0.00004   0.00000  -0.00447  -0.00446  -3.14082
   D151       3.14066   0.00002   0.00000   0.00198   0.00198  -3.14055
   D152       0.00089   0.00002   0.00000  -0.00120  -0.00120  -0.00032
   D153      -0.00329   0.00003   0.00000   0.00407   0.00407   0.00077
   D154       3.14012   0.00003   0.00000   0.00090   0.00089   3.14101
   D155      -0.00004   0.00004   0.00000   0.00279   0.00279   0.00275
   D156      -3.13974   0.00001   0.00000   0.00031   0.00031  -3.13944
   D157       3.13878   0.00005   0.00000   0.00371   0.00371  -3.14069
   D158      -0.00092   0.00001   0.00000   0.00123   0.00123   0.00030
   D159       3.12948   0.00004   0.00000   0.01254   0.01253  -3.14117
   D160      -0.01230   0.00009   0.00000   0.01251   0.01250   0.00021
   D161      -0.00938   0.00004   0.00000   0.01163   0.01162   0.00225
   D162       3.13203   0.00009   0.00000   0.01160   0.01160  -3.13956
   D163       0.00151  -0.00002   0.00000  -0.00379  -0.00379  -0.00228
   D164       3.14145   0.00000   0.00000  -0.00158  -0.00158   3.13987
   D165       3.14121  -0.00003   0.00000  -0.00049  -0.00048   3.14073
   D166      -0.00204  -0.00000   0.00000   0.00173   0.00173  -0.00031
   D167      -0.00357  -0.00001   0.00000   0.00342   0.00341  -0.00016
   D168       3.13519   0.00002   0.00000   0.00866   0.00865  -3.13934
   D169       3.13989  -0.00001   0.00000   0.00016   0.00016   3.14005
   D170      -0.00453   0.00002   0.00000   0.00540   0.00539   0.00086
   D171      -0.00179  -0.00004   0.00000  -0.00236  -0.00236  -0.00415
   D172       3.12690  -0.00000   0.00000   0.00226   0.00226   3.12915
   D173       3.13790  -0.00001   0.00000   0.00015   0.00015   3.13805
   D174      -0.01660   0.00004   0.00000   0.00476   0.00476  -0.01183
   D175       0.00104   0.00003   0.00000   0.00287   0.00287   0.00391
   D176      -3.12772  -0.00001   0.00000  -0.00172  -0.00172  -3.12944
   D177      -3.13889   0.00001   0.00000   0.00064   0.00064  -3.13825
   D178       0.01554  -0.00003   0.00000  -0.00395  -0.00395   0.01159
   D179       2.28497  -0.00003   0.00000  -0.03888  -0.03888   2.24608
   D180      -1.91359  -0.00002   0.00000  -0.03890  -0.03890  -1.95250
   D181       0.18093  -0.00001   0.00000  -0.03795  -0.03795   0.14298
   D182      -0.86982   0.00001   0.00000  -0.03417  -0.03417  -0.90398
   D183       1.21481   0.00003   0.00000  -0.03419  -0.03419   1.18062
   D184      -2.97386   0.00003   0.00000  -0.03324  -0.03324  -3.00709
   D185      -0.00398   0.00002   0.00000  -0.00001   0.00001  -0.00397
   D186       3.12772   0.00017   0.00000   0.01572   0.01571  -3.13975
   D187      -3.13005  -0.00015   0.00000  -0.01541  -0.01538   3.13776
   D188       0.00166  -0.00000   0.00000   0.00032   0.00032   0.00198
   D189       0.00073   0.00006   0.00000   0.00709   0.00705   0.00779
   D190      -3.11095   0.00003   0.00000  -0.01290  -0.01289  -3.12384
   D191       3.12846  -0.00010   0.00000   0.00973   0.00970   3.13816
   D192       0.01677  -0.00013   0.00000  -0.01026  -0.01024   0.00653
   D193       0.00091   0.00000   0.00000   0.00094   0.00094   0.00185
   D194      -3.13781  -0.00003   0.00000  -0.00437  -0.00437   3.14101
   D195       3.13535   0.00007   0.00000   0.00981   0.00981  -3.13802
   D196      -0.00337   0.00004   0.00000   0.00450   0.00450   0.00113
   D197       0.00312  -0.00004   0.00000  -0.00282  -0.00282   0.00030
   D198       3.13557  -0.00004   0.00000   0.00521   0.00521   3.14078
   D199      -3.13867   0.00001   0.00000  -0.00284  -0.00285  -3.14151
   D200      -0.00621   0.00002   0.00000   0.00519   0.00518  -0.00103
         Item               Value     Threshold  Converged?
 Maximum Force            0.003879     0.000450     NO 
 RMS     Force            0.000303     0.000300     NO 
 Maximum Displacement     0.546945     0.001800     NO 
 RMS     Displacement     0.064594     0.001200     NO 
 Predicted change in Energy=-6.259500D-04
 GradGradGradGradGradGradGradGradGradGradGradGradGradGradGradGradGradGrad

 Stoichiometry    C38H22Br2
 Framework group  C1[X(C38H22Br2)]
 Deg. of freedom   180
 Full point group                 C1      NOp   1
 Largest Abelian subgroup         C1      NOp   1
 Largest concise Abelian subgroup C1      NOp   1
                         Standard orientation:                         
 ---------------------------------------------------------------------
 Center     Atomic      Atomic             Coordinates (Angstroms)
 Number     Number       Type             X           Y           Z
 ---------------------------------------------------------------------
      1          6           0        6.512908   -2.466058   -0.570207
      2          6           0        5.646246   -3.277141    0.165125
      3          6           0        4.267103   -3.006029    0.254649
      4          6           0        3.729963   -1.869046   -0.413288
      5          6           0        4.617167   -1.032139   -1.152162
      6          6           0        5.984506   -1.332890   -1.204257
      7          1           0        6.039464   -4.149527    0.683679
      8          1           0        6.645815   -0.672206   -1.762337
      9          6           0        2.324142   -1.578254   -0.353372
     10          6           0        1.808086   -0.426755   -1.025489
     11          6           0        1.448075   -2.465472    0.338385
     12          6           0        0.418225   -0.119788   -0.932738
     13          6           0        0.044824   -2.185707    0.373764
     14          6           0       -0.473122   -1.009338   -0.253717
     15          6           0        3.364447   -3.860187    0.971864
     16          6           0        2.024809   -3.601126    1.008512
     17          6           0        2.707623    0.369465   -1.784239
     18          1           0        2.329487    1.198168   -2.370082
     19          6           0        4.057431    0.100401   -1.842637
     20          1           0        4.702333    0.699213   -2.479872
     21          6           0       -1.887169   -0.715381   -0.194596
     22          6           0       -2.776899   -1.609549    0.479883
     23          6           0       -2.400893    0.472768   -0.802681
     24          6           0       -4.176178   -1.326224    0.537159
     25          6           0       -3.798786    0.760894   -0.750058
     26          6           0       -4.682418   -0.140470   -0.078527
     27          6           0       -6.087435    0.147271   -0.023856
     28          6           0       -6.613650    1.324656   -0.630574
     29          6           0       -6.987924   -0.739406    0.638852
     30          6           0       -7.994634    1.584939   -0.565434
     31          6           0       -8.359227   -0.438003    0.678676
     32          6           0       -8.878477    0.719082    0.084813
     33          1           0       -8.377685    2.488285   -1.036607
     34          1           0       -9.030674   -1.127784    1.187702
     35          6           0       -0.878456   -3.046556    1.036308
     36          6           0       -2.215568   -2.775001    1.084797
     37          6           0       -1.471045    1.349989   -1.445215
     38          1           0       -1.820969    2.271312   -1.894788
     39          6           0       -0.136440    1.076254   -1.505388
     40          1           0        0.512167    1.793826   -1.993380
     41          6           0       -5.112081   -2.198029    1.194388
     42          1           0       -4.758337   -3.106829    1.666416
     43          6           0       -6.447296   -1.922451    1.245739
     44          1           0       -7.125412   -2.606055    1.751588
     45          6           0       -5.701004    2.209187   -1.295102
     46          1           0       -6.093109    3.110504   -1.760799
     47          6           0       -4.364646    1.938307   -1.349729
     48          1           0       -3.720821    2.640613   -1.865352
     49          1           0       -0.524023   -3.948101    1.521073
     50          1           0       -2.857129   -3.473920    1.607704
     51          1           0        3.766074   -4.729334    1.487637
     52          1           0        1.385278   -4.280896    1.558751
     53          6           0        7.987691   -2.782890   -0.671364
     54          1           0        8.203556   -3.374857   -1.571789
     55          1           0        8.587702   -1.868428   -0.731312
     56          1           0        8.333493   -3.361810    0.191185
     57          6           0      -10.357794    1.023145    0.158572
     58          1           0      -10.958450    0.168856   -0.176572
     59          1           0      -10.664835    1.251513    1.187527
     60          1           0      -10.620404    1.884010   -0.464850
     61         35           0        3.979487    2.244757    0.000347
     62         35           0        4.454623    3.934632    1.623177
 ---------------------------------------------------------------------
 Rotational constants (GHZ):           0.1268411           0.0325600           0.0276952
 Standard basis: 6-31+G(d) (6D, 7F)
 There are   834 symmetry adapted cartesian basis functions of A   symmetry.
 There are   834 symmetry adapted basis functions of A   symmetry.
   834 basis functions,  1478 primitive gaussians,   834 cartesian basis functions
   160 alpha electrons      160 beta electrons
       nuclear repulsion energy      5158.3841260197 Hartrees.
 NAtoms=   62 NActive=   62 NUniq=   62 SFac= 1.00D+00 NAtFMM=   60 NAOKFM=T Big=T
 Integral buffers will be    131072 words long.
 Raffenetti 2 integral format.
 Two-electron integral symmetry is turned on.
 One-electron integrals computed using PRISM.
 NBasis=   834 RedAO= T EigKep=  1.35D-06  NBF=   834
 NBsUse=   802 1.00D-06 EigRej=  6.62D-07 NBFU=   802
 Initial guess from the checkpoint file:  "checkpoint.chk"
 B after Tr=     0.000000    0.000000   -0.000000
         Rot=    0.999998   -0.001329   -0.000782    0.001026 Ang=  -0.21 deg.
 ExpMin= 3.50D-02 ExpMax= 5.74D+05 ExpMxC= 5.74D+03 IAcc=3 IRadAn=         5 AccDes= 0.00D+00
 Harris functional with IExCor=  402 and IRadAn=       5 diagonalized for initial guess.
 HarFok:  IExCor=  402 AccDes= 0.00D+00 IRadAn=         5 IDoV= 1 UseB2=F ITyADJ=14
 ICtDFT=  3500011 ScaDFX=  1.000000  1.000000  1.000000  1.000000
 FoFCou: FMM=F IPFlag=           0 FMFlag=      100000 FMFlg1=        2001
         NFxFlg=           0 DoJE=T BraDBF=F KetDBF=T FulRan=T
         wScrn=  0.000000 ICntrl=       500 IOpCl=  0 I1Cent=   200000004 NGrid=           0
         NMat0=    1 NMatS0=      1 NMatT0=    0 NMatD0=    1 NMtDS0=    0 NMtDT0=    0
 Petite list used in FoFCou.
 Requested convergence on RMS density matrix=1.00D-08 within 128 cycles.
 Requested convergence on MAX density matrix=1.00D-06.
 Requested convergence on             energy=1.00D-06.
 No special actions if energy rises.
