 Entering Gaussian System, Link 0=g16
 Initial command:
 /opt/software/gaussian/g16.c01/l1.exe "/localscratch/lustra.25374842.0/Gau-200244.inp" -scrdir="/localscratch/lustra.25374842.0/"
 Entering Link 1 = /opt/software/gaussian/g16.c01/l1.exe PID=    200246.
  
 Copyright (c) 1988-2019, Gaussian, Inc.  All Rights Reserved.
  
 This is part of the Gaussian(R) 16 program.  It is based on
 the Gaussian(R) 09 system (copyright 2009, Gaussian, Inc.),
 the Gaussian(R) 03 system (copyright 2003, Gaussian, Inc.),
 the Gaussian(R) 98 system (copyright 1998, Gaussian, Inc.),
 the Gaussian(R) 94 system (copyright 1995, Gaussian, Inc.),
 the Gaussian 92(TM) system (copyright 1992, Gaussian, Inc.),
 the Gaussian 90(TM) system (copyright 1990, Gaussian, Inc.),
 the Gaussian 88(TM) system (copyright 1988, Gaussian, Inc.),
 the Gaussian 86(TM) system (copyright 1986, Carnegie Mellon
 University), and the Gaussian 82(TM) system (copyright 1983,
 Carnegie Mellon University). Gaussian is a federally registered
 trademark of Gaussian, Inc.
  
 This software contains proprietary and confidential information,
 including trade secrets, belonging to Gaussian, Inc.
  
 This software is provided under written license and may be
 used, copied, transmitted, or stored only in accord with that
 written license.
  
 The following legend is applicable only to US Government
 contracts under FAR:
  
                    RESTRICTED RIGHTS LEGEND
  
 Use, reproduction and disclosure by the US Government is
 subject to restrictions as set forth in subparagraphs (a)
 and (c) of the Commercial Computer Software - Restricted
 Rights clause in FAR 52.227-19.
  
 Gaussian, Inc.
 340 Quinnipiac St., Bldg. 40, Wallingford CT 06492
  
  
 ---------------------------------------------------------------
 Warning -- This program may not be used in any manner that
 competes with the business of Gaussian, Inc. or will provide
 assistance to any competitor of Gaussian, Inc.  The licensee
 of this program is prohibited from giving any competitor of
 Gaussian, Inc. access to this program.  By using this program,
 the user acknowledges that Gaussian, Inc. is engaged in the
 business of creating and licensing software in the field of
 computational chemistry and represents and warrants to the
 licensee that it is not a competitor of Gaussian, Inc. and that
 it will not use this program in any manner prohibited above.
 ---------------------------------------------------------------
  

 Cite this work as:
 Gaussian 16, Revision C.01,
 M. J. Frisch, G. W. Trucks, H. B. Schlegel, G. E. Scuseria, 
 M. A. Robb, J. R. Cheeseman, G. Scalmani, V. Barone, 
 G. A. Petersson, H. Nakatsuji, X. Li, M. Caricato, A. V. Marenich, 
 J. Bloino, B. G. Janesko, R. Gomperts, B. Mennucci, H. P. Hratchian, 
 J. V. Ortiz, A. F. Izmaylov, J. L. Sonnenberg, D. Williams-Young, 
 F. Ding, F. Lipparini, F. Egidi, J. Goings, B. Peng, A. Petrone, 
 T. Henderson, D. Ranasinghe, V. G. Zakrzewski, J. Gao, N. Rega, 
 G. Zheng, W. Liang, M. Hada, M. Ehara, K. Toyota, R. Fukuda, 
 J. Hasegawa, M. Ishida, T. Nakajima, Y. Honda, O. Kitao, H. Nakai, 
 T. Vreven, K. Throssell, J. A. Montgomery, Jr., J. E. Peralta, 
 F. Ogliaro, M. J. Bearpark, J. J. Heyd, E. N. Brothers, K. N. Kudin, 
 V. N. Staroverov, T. A. Keith, R. Kobayashi, J. Normand, 
 K. Raghavachari, A. P. Rendell, J. C. Burant, S. S. Iyengar, 
 J. Tomasi, M. Cossi, J. M. Millam, M. Klene, C. Adamo, R. Cammi, 
 J. W. Ochterski, R. L. Martin, K. Morokuma, O. Farkas, 
 J. B. Foresman, and D. J. Fox, Gaussian, Inc., Wallingford CT, 2019.
 
 ******************************************
 Gaussian 16:  ES64L-G16RevC.01  3-Jul-2019
                26-Jan-2022 
 ******************************************
 -------------------------------------------------
 #opt=(calcfc,ts,noeigentest) freq B3LYP 6-31+G(d)
 -------------------------------------------------
 1/5=1,10=4,11=1,18=20,26=3,38=1/1,3;
 2/9=110,12=2,17=6,18=5,40=1/2;
 3/5=1,6=6,7=11,11=2,25=1,30=1,71=2,74=-5,140=1/1,2,3;
 4//1;
 5/5=2,38=5/2;
 8/6=4,10=90,11=11/1;
 11/6=1,8=1,9=11,15=111,16=1/1,2,10;
 10/6=1,13=1/2;
 6/7=2,8=2,9=2,10=2,28=1/1;
 7/10=1,25=1/1,2,3,16;
 1/5=1,10=4,11=1,18=20,26=3/3(2);
 2/9=110/2;
 99//99;
 2/9=110/2;
 3/5=1,6=6,7=11,11=2,25=1,30=1,71=1,74=-5/1,2,3;
 4/5=5,16=3,69=1/1;
 5/5=2,38=5/2;
 7//1,2,3,16;
 1/5=1,11=1,18=20,26=3/3(-5);
 2/9=110/2;
 6/7=2,8=2,9=2,10=2,19=2,28=1/1;
 99/9=1/99;
 -----------------------
 alkene_transition_state
 -----------------------
 Symbolic Z-matrix:
 Charge =  0 Multiplicity = 1
 C                     1.34679   1.46026  -0.69199 
 C                     1.34674   1.4601    0.69202 
 H                     2.27575   1.44918  -1.25381 
 H                     2.27567   1.44899   1.25389 
 H                     0.41372   1.54784  -1.23801 
 H                     0.41365   1.5477    1.23799 
 Br                    1.12025  -0.93331   0.00012 
 Br                   -1.73568   0.26143  -0.00013 
 
 Add virtual bond connecting atoms Br7        and C1         Dist= 4.73D+00.
 Add virtual bond connecting atoms Br7        and C2         Dist= 4.73D+00.
 Add virtual bond connecting atoms Br8        and H5         Dist= 5.28D+00.
 Add virtual bond connecting atoms Br8        and H6         Dist= 5.28D+00.

 GradGradGradGradGradGradGradGradGradGradGradGradGradGradGradGradGradGrad
 Berny optimization.
 Initialization pass.
                           ----------------------------
                           !    Initial Parameters    !
                           ! (Angstroms and Degrees)  !
 --------------------------                            --------------------------
 ! Name  Definition              Value          Derivative Info.                !
 --------------------------------------------------------------------------------
 ! R1    R(1,2)                  1.384          calculate D2E/DX2 analytically  !
 ! R2    R(1,3)                  1.0857         calculate D2E/DX2 analytically  !
 ! R3    R(1,5)                  1.0846         calculate D2E/DX2 analytically  !
 ! R4    R(1,7)                  2.5019         calculate D2E/DX2 analytically  !
 ! R5    R(2,4)                  1.0857         calculate D2E/DX2 analytically  !
 ! R6    R(2,6)                  1.0846         calculate D2E/DX2 analytically  !
 ! R7    R(2,7)                  2.5017         calculate D2E/DX2 analytically  !
 ! R8    R(5,8)                  2.7941         calculate D2E/DX2 analytically  !
 ! R9    R(6,8)                  2.7941         calculate D2E/DX2 analytically  !
 ! A1    A(2,1,3)              121.1651         calculate D2E/DX2 analytically  !
 ! A2    A(2,1,5)              120.2247         calculate D2E/DX2 analytically  !
 ! A3    A(3,1,5)              118.4501         calculate D2E/DX2 analytically  !
 ! A4    A(3,1,7)              102.1729         calculate D2E/DX2 analytically  !
 ! A5    A(5,1,7)               97.9678         calculate D2E/DX2 analytically  !
 ! A6    A(1,2,4)              121.1641         calculate D2E/DX2 analytically  !
 ! A7    A(1,2,6)              120.2248         calculate D2E/DX2 analytically  !
 ! A8    A(4,2,6)              118.4499         calculate D2E/DX2 analytically  !
 ! A9    A(4,2,7)              102.1695         calculate D2E/DX2 analytically  !
 ! A10   A(6,2,7)               97.967          calculate D2E/DX2 analytically  !
 ! A11   A(1,5,8)              113.6758         calculate D2E/DX2 analytically  !
 ! A12   A(2,6,8)              113.6739         calculate D2E/DX2 analytically  !
 ! A13   A(5,8,6)               52.6004         calculate D2E/DX2 analytically  !
 ! D1    D(3,1,2,4)              0.0062         calculate D2E/DX2 analytically  !
 ! D2    D(3,1,2,6)            175.3201         calculate D2E/DX2 analytically  !
 ! D3    D(5,1,2,4)           -175.323          calculate D2E/DX2 analytically  !
 ! D4    D(5,1,2,6)             -0.009          calculate D2E/DX2 analytically  !
 ! D5    D(2,1,5,8)            -35.3728         calculate D2E/DX2 analytically  !
 ! D6    D(3,1,5,8)            149.1727         calculate D2E/DX2 analytically  !
 ! D7    D(7,1,5,8)             40.6305         calculate D2E/DX2 analytically  !
 ! D8    D(1,2,6,8)             35.3851         calculate D2E/DX2 analytically  !
 ! D9    D(4,2,6,8)           -149.1752         calculate D2E/DX2 analytically  !
 ! D10   D(7,2,6,8)            -40.6376         calculate D2E/DX2 analytically  !
 ! D11   D(1,5,8,6)             33.9182         calculate D2E/DX2 analytically  !
 ! D12   D(2,6,8,5)            -33.9224         calculate D2E/DX2 analytically  !
 --------------------------------------------------------------------------------
 Trust Radius=3.00D-01 FncErr=1.00D-07 GrdErr=1.00D-06 EigMax=2.50D+02 EigMin=1.00D-04
 Number of steps in this run=     44 maximum allowed number of steps=    100.
 Search for a saddle point of order  1.
 GradGradGradGradGradGradGradGradGradGradGradGradGradGradGradGradGradGrad

                          Input orientation:                          
 ---------------------------------------------------------------------
 Center     Atomic      Atomic             Coordinates (Angstroms)
 Number     Number       Type             X           Y           Z
 ---------------------------------------------------------------------
      1          6           0        1.346790    1.460260   -0.691990
      2          6           0        1.346740    1.460100    0.692020
      3          1           0        2.275750    1.449180   -1.253810
      4          1           0        2.275670    1.448990    1.253890
      5          1           0        0.413720    1.547840   -1.238010
      6          1           0        0.413650    1.547700    1.237990
      7         35           0        1.120250   -0.933310    0.000120
      8         35           0       -1.735680    0.261430   -0.000130
 ---------------------------------------------------------------------
                    Distance matrix (angstroms):
                    1          2          3          4          5
     1  C    0.000000
     2  C    1.384010   0.000000
     3  H    1.085694   2.156254   0.000000
     4  H    2.156245   1.085694   2.507700   0.000000
     5  H    1.084633   2.145516   1.864709   3.112265   0.000000
     6  H    2.145511   1.084626   3.112264   1.864702   2.476000
     7  Br   2.501902   2.501686   2.929809   2.929554   2.861513
     8  Br   3.378977   3.378934   4.367383   4.367355   2.794122
                    6          7          8
     6  H    0.000000
     7  Br   2.861296   0.000000
     8  Br   2.794110   3.095762   0.000000
 Stoichiometry    C2H4Br2
 Framework group  C1[X(C2H4Br2)]
 Deg. of freedom    18
 Full point group                 C1      NOp   1
 Largest Abelian subgroup         C1      NOp   1
 Largest concise Abelian subgroup C1      NOp   1
                         Standard orientation:                         
 ---------------------------------------------------------------------
 Center     Atomic      Atomic             Coordinates (Angstroms)
 Number     Number       Type             X           Y           Z
 ---------------------------------------------------------------------
      1          6           0        1.070346    1.673488   -0.691989
      2          6           0        1.070325    1.673321    0.692021
      3          1           0        1.986900    1.825210   -1.253809
      4          1           0        1.986854    1.825009    1.253891
      5          1           0        0.136354    1.596364   -1.238009
      6          1           0        0.136310    1.596214    1.237991
      7         35           0        1.266343   -0.722777    0.000121
      8         35           0       -1.754642   -0.046471   -0.000129
 ---------------------------------------------------------------------
 Rotational constants (GHZ):           3.7066818           1.1940913           0.9643281
 Standard basis: 6-31+G(d) (6D, 7F)
 There are   114 symmetry adapted cartesian basis functions of A   symmetry.
 There are   114 symmetry adapted basis functions of A   symmetry.
   114 basis functions,   254 primitive gaussians,   114 cartesian basis functions
    43 alpha electrons       43 beta electrons
       nuclear repulsion energy       444.0442852745 Hartrees.
 NAtoms=    8 NActive=    8 NUniq=    8 SFac= 1.00D+00 NAtFMM=   60 NAOKFM=F Big=F
 Integral buffers will be    131072 words long.
 Raffenetti 2 integral format.
 Two-electron integral symmetry is turned on.
 One-electron integrals computed using PRISM.
 NBasis=   114 RedAO= T EigKep=  1.80D-04  NBF=   114
 NBsUse=   114 1.00D-06 EigRej= -1.00D+00 NBFU=   114
 ExpMin= 3.50D-02 ExpMax= 5.74D+05 ExpMxC= 5.74D+03 IAcc=3 IRadAn=         5 AccDes= 0.00D+00
 Harris functional with IExCor=  402 and IRadAn=       5 diagonalized for initial guess.
 HarFok:  IExCor=  402 AccDes= 0.00D+00 IRadAn=         5 IDoV= 1 UseB2=F ITyADJ=14
 ICtDFT=  3500011 ScaDFX=  1.000000  1.000000  1.000000  1.000000
 FoFCou: FMM=F IPFlag=           0 FMFlag=      100000 FMFlg1=           0
         NFxFlg=           0 DoJE=T BraDBF=F KetDBF=T FulRan=T
         wScrn=  0.000000 ICntrl=       500 IOpCl=  0 I1Cent=   200000004 NGrid=           0
         NMat0=    1 NMatS0=      1 NMatT0=    0 NMatD0=    1 NMtDS0=    0 NMtDT0=    0
 Petite list used in FoFCou.
 Keep R1 ints in memory in canonical form, NReq=22528208.
 Requested convergence on RMS density matrix=1.00D-08 within 128 cycles.
 Requested convergence on MAX density matrix=1.00D-06.
 Requested convergence on             energy=1.00D-06.
 No special actions if energy rises.
 EnCoef did    13 forward-backward iterations
 EnCoef did    37 forward-backward iterations
 SCF Done:  E(RB3LYP) =  -5221.95132103     A.U. after   23 cycles
            NFock= 23  Conv=0.98D-09     -V/T= 2.0063
 DoSCS=F DFT=T ScalE2(SS,OS)=  1.000000  1.000000
 Range of M.O.s used for correlation:     1   114
 NBasis=   114 NAE=    43 NBE=    43 NFC=     0 NFV=     0
 NROrb=    114 NOA=    43 NOB=    43 NVA=    71 NVB=    71

 **** Warning!!: The largest alpha MO coefficient is  0.30099940D+02


 **** Warning!!: The smallest alpha delta epsilon is  0.38816106D-01

 Symmetrizing basis deriv contribution to polar:
 IMax=3 JMax=2 DiffMx= 0.00D+00
 G2DrvN: will do     9 centers at a time, making    1 passes.
 Calling FoFCou, ICntrl=  3107 FMM=F I1Cent=   0 AccDes= 0.00D+00.
 End of G2Drv F.D. properties file   721 does not exist.
 End of G2Drv F.D. properties file   722 does not exist.
 End of G2Drv F.D. properties file   788 does not exist.
          IDoAtm=11111111
          Differentiating once with respect to nuclear coordinates.
 Keep R1 ints in memory in canonical form, NReq=22531881.
          There are    27 degrees of freedom in the 1st order CPHF.  IDoFFX=6 NUNeed=     0.
     21 vectors produced by pass  0 Test12= 1.13D-14 3.70D-09 XBig12= 2.03D-01 2.32D-01.
 AX will form    21 AO Fock derivatives at one time.
     21 vectors produced by pass  1 Test12= 1.13D-14 3.70D-09 XBig12= 6.02D-02 1.15D-01.
     21 vectors produced by pass  2 Test12= 1.13D-14 3.70D-09 XBig12= 2.16D-03 1.05D-02.
     21 vectors produced by pass  3 Test12= 1.13D-14 3.70D-09 XBig12= 1.57D-05 1.11D-03.
     21 vectors produced by pass  4 Test12= 1.13D-14 3.70D-09 XBig12= 4.80D-08 4.97D-05.
     21 vectors produced by pass  5 Test12= 1.13D-14 3.70D-09 XBig12= 9.52D-11 2.08D-06.
      5 vectors produced by pass  6 Test12= 1.13D-14 3.70D-09 XBig12= 1.34D-13 7.77D-08.
 InvSVY:  IOpt=1 It=  1 EMax= 1.33D-15
 Solved reduced A of dimension   131 with    21 vectors.
 End of Minotr F.D. properties file   721 does not exist.
 End of Minotr F.D. properties file   722 does not exist.
 End of Minotr F.D. properties file   788 does not exist.

 **********************************************************************

            Population analysis using the SCF Density.

 **********************************************************************

 Orbital symmetries:
       Occupied  (A) (A) (A) (A) (A) (A) (A) (A) (A) (A) (A) (A)
                 (A) (A) (A) (A) (A) (A) (A) (A) (A) (A) (A) (A)
                 (A) (A) (A) (A) (A) (A) (A) (A) (A) (A) (A) (A)
                 (A) (A) (A) (A) (A) (A) (A)
       Virtual   (A) (A) (A) (A) (A) (A) (A) (A) (A) (A) (A) (A)
                 (A) (A) (A) (A) (A) (A) (A) (A) (A) (A) (A) (A)
                 (A) (A) (A) (A) (A) (A) (A) (A) (A) (A) (A) (A)
                 (A) (A) (A) (A) (A) (A) (A) (A) (A) (A) (A) (A)
                 (A) (A) (A) (A) (A) (A) (A) (A) (A) (A) (A) (A)
                 (A) (A) (A) (A) (A) (A) (A) (A) (A) (A) (A)
 The electronic state is 1-A.
 Alpha  occ. eigenvalues -- -482.96465-482.87224 -61.92356 -61.83281 -56.44201
 Alpha  occ. eigenvalues --  -56.43766 -56.43685 -56.35049 -56.34779 -56.34771
 Alpha  occ. eigenvalues --  -10.28628 -10.28567  -8.62852  -8.53991  -6.58315
 Alpha  occ. eigenvalues --   -6.56863  -6.56566  -6.49051  -6.48131  -6.48114
 Alpha  occ. eigenvalues --   -2.69796  -2.69479  -2.69249  -2.68092  -2.68082
 Alpha  occ. eigenvalues --   -2.60625  -2.60389  -2.60374  -2.59644  -2.59644
 Alpha  occ. eigenvalues --   -0.85627  -0.76635  -0.69716  -0.65838  -0.54372
 Alpha  occ. eigenvalues --   -0.49409  -0.43462  -0.40446  -0.33467  -0.32940
 Alpha  occ. eigenvalues --   -0.25571  -0.25261  -0.23639
 Alpha virt. eigenvalues --   -0.19758  -0.07729  -0.00884   0.01175   0.02540
 Alpha virt. eigenvalues --    0.02864   0.05281   0.05672   0.06487   0.06912
 Alpha virt. eigenvalues --    0.06970   0.08802   0.09938   0.09976   0.11162
 Alpha virt. eigenvalues --    0.11786   0.13982   0.14502   0.16421   0.23396
 Alpha virt. eigenvalues --    0.25519   0.26950   0.30615   0.35569   0.40110
 Alpha virt. eigenvalues --    0.42368   0.43993   0.47375   0.47425   0.48768
 Alpha virt. eigenvalues --    0.51340   0.52082   0.52144   0.52807   0.53721
 Alpha virt. eigenvalues --    0.56503   0.62198   0.64146   0.64591   0.65614
 Alpha virt. eigenvalues --    0.66915   0.69223   0.69411   0.76102   0.76841
 Alpha virt. eigenvalues --    0.87921   0.89689   0.92342   1.01483   1.03885
 Alpha virt. eigenvalues --    1.16467   1.17826   1.22489   1.41076   1.49763
 Alpha virt. eigenvalues --    1.72173   1.73119   1.76668   1.88232   1.96094
 Alpha virt. eigenvalues --    2.04329   2.20480   2.28431   2.55995   2.60668
 Alpha virt. eigenvalues --    4.15898   4.23330   8.78783   8.85600  76.20569
 Alpha virt. eigenvalues --   78.19313
          Condensed to atoms (all electrons):
               1          2          3          4          5          6
     1  C    5.748138  -0.060329   0.360400  -0.027372   0.356445  -0.018939
     2  C   -0.060329   5.748216  -0.027393   0.360379  -0.018951   0.356435
     3  H    0.360400  -0.027393   0.451777  -0.004051  -0.020621   0.002648
     4  H   -0.027372   0.360379  -0.004051   0.451779   0.002648  -0.020619
     5  H    0.356445  -0.018951  -0.020621   0.002648   0.401165  -0.004387
     6  H   -0.018939   0.356435   0.002648  -0.020619  -0.004387   0.401163
     7  Br   0.010603   0.010744  -0.011951  -0.011966  -0.013417  -0.013428
     8  Br  -0.045688  -0.045684   0.002636   0.002636   0.013875   0.013871
               7          8
     1  C    0.010603  -0.045688
     2  C    0.010744  -0.045684
     3  H   -0.011951   0.002636
     4  H   -0.011966   0.002636
     5  H   -0.013417   0.013875
     6  H   -0.013428   0.013871
     7  Br  35.094722  -0.044603
     8  Br  -0.044603  35.495195
 Mulliken charges:
               1
     1  C   -0.323258
     2  C   -0.323418
     3  H    0.246555
     4  H    0.246566
     5  H    0.283242
     6  H    0.283255
     7  Br  -0.020704
     8  Br  -0.392239
 Sum of Mulliken charges =  -0.00000
 Mulliken charges with hydrogens summed into heavy atoms:
               1
     1  C    0.206539
     2  C    0.206404
     7  Br  -0.020704
     8  Br  -0.392239
 APT charges:
               1
     1  C   -0.726465
     2  C   -0.726668
     3  H    0.651521
     4  H    0.651514
     5  H    0.299911
     6  H    0.299923
     7  Br  -0.083151
     8  Br  -0.366585
 Sum of APT charges =  -0.00000
 APT charges with hydrogens summed into heavy atoms:
               1
     1  C    0.224967
     2  C    0.224769
     7  Br  -0.083151
     8  Br  -0.366585
 Electronic spatial extent (au):  <R**2>=           1042.5565
 Charge=             -0.0000 electrons
 Dipole moment (field-independent basis, Debye):
    X=              4.9160    Y=              3.3070    Z=              0.0003  Tot=              5.9248
 Quadrupole moment (field-independent basis, Debye-Ang):
   XX=            -53.3004   YY=            -45.2746   ZZ=            -48.9041
   XY=              3.1455   XZ=             -0.0003   YZ=             -0.0003
 Traceless Quadrupole moment (field-independent basis, Debye-Ang):
   XX=             -4.1407   YY=              3.8851   ZZ=              0.2556
   XY=              3.1455   XZ=             -0.0003   YZ=             -0.0003
 Octapole moment (field-independent basis, Debye-Ang**2):
  XXX=              4.1258  YYY=            -20.9107  ZZZ=              0.0010  XYY=              7.8419
  XXY=             -0.9322  XXZ=              0.0005  XZZ=              1.9955  YZZ=             -1.5198
  YYZ=             -0.0005  XYZ=             -0.0004
 Hexadecapole moment (field-independent basis, Debye-Ang**3):
 XXXX=           -703.6589 YYYY=           -337.6955 ZZZZ=           -117.0706 XXXY=            -13.2925
 XXXZ=             -0.0215 YYYX=            -23.0821 YYYZ=              0.0035 ZZZX=             -0.0223
 ZZZY=              0.0061 XXYY=           -159.4232 XXZZ=           -134.6601 YYZZ=            -67.3097
 XXYZ=              0.0008 YYXZ=             -0.0083 ZZXY=             -1.5816
 N-N= 4.440442852745D+02 E-N=-1.333599260764D+04  KE= 5.189015466561D+03
  Exact polarizability:       0.000       0.000       0.000       0.000       0.000       0.000
 Approx polarizability:     569.911      86.400     171.634       0.011      -0.009      91.897
 Calling FoFJK, ICntrl=    100127 FMM=F ISym2X=0 I1Cent= 0 IOpClX= 0 NMat=1 NMatS=1 NMatT=0.
 ***** Axes restored to original set *****
 -------------------------------------------------------------------
 Center     Atomic                   Forces (Hartrees/Bohr)
 Number     Number              X              Y              Z
 -------------------------------------------------------------------
      1        6          -0.000022533   -0.000052721    0.000051589
      2        6          -0.000017121   -0.000052161   -0.000054913
      3        1           0.000002370   -0.000006433   -0.000010138
      4        1           0.000001150   -0.000006763    0.000010785
      5        1           0.000057122    0.000022420   -0.000021970
      6        1           0.000054001    0.000022190    0.000024446
      7       35           0.000001882    0.000127232    0.000000244
      8       35          -0.000076871   -0.000053763   -0.000000044
 -------------------------------------------------------------------
 Cartesian Forces:  Max     0.000127232 RMS     0.000043559
 FormGI is forming the generalized inverse of G from B-inverse, IUseBI=4.

 GradGradGradGradGradGradGradGradGradGradGradGradGradGradGradGradGradGrad
 Berny optimization.
 Internal  Forces:  Max     0.000065878 RMS     0.000022033
 Search for a saddle point.
 Step number   1 out of a maximum of   44
 All quantities printed in internal units (Hartrees-Bohrs-Radians)
 Swapping is turned off.
 Second derivative matrix not updated -- analytic derivatives used.
 ITU=  0
     Eigenvalues ---   -0.03815  -0.00046   0.00397   0.00577   0.01516
     Eigenvalues ---    0.01532   0.02728   0.02905   0.04703   0.09751
     Eigenvalues ---    0.10433   0.12750   0.16664   0.33286   0.36059
     Eigenvalues ---    0.36886   0.36931   0.46139
 Eigenvectors required to have negative eigenvalues:
                          R4        R7        D9        D6        A12
   1                    0.60850   0.60847   0.17133  -0.17129  -0.16089
                          A11       A10       A5        D7        D10
   1                   -0.16088  -0.14985  -0.14980  -0.11963   0.11960
 RFO step:  Lambda0=1.090560746D-07 Lambda=-4.60955627D-04.
 Linear search not attempted -- option 19 set.
 Maximum step size (   0.300) exceeded in Quadratic search.
    -- Step size scaled by   0.525
 Iteration  1 RMS(Cart)=  0.07018064 RMS(Int)=  0.00349796
 Iteration  2 RMS(Cart)=  0.00315263 RMS(Int)=  0.00126922
 Iteration  3 RMS(Cart)=  0.00000290 RMS(Int)=  0.00126921
 Iteration  4 RMS(Cart)=  0.00000000 RMS(Int)=  0.00126921
 Variable       Old X    -DE/DX   Delta X   Delta X   Delta X     New X
                                 (Linear)    (Quad)   (Total)
    R1        2.61540  -0.00002   0.00000  -0.00010   0.00046   2.61586
    R2        2.05166   0.00001   0.00000   0.00053   0.00053   2.05220
    R3        2.04966  -0.00002   0.00000   0.00050   0.00043   2.05009
    R4        4.72791  -0.00007   0.00000   0.20735   0.20675   4.93466
    R5        2.05167   0.00001   0.00000  -0.00052  -0.00052   2.05114
    R6        2.04965  -0.00001   0.00000  -0.00059  -0.00070   2.04895
    R7        4.72750  -0.00007   0.00000  -0.20728  -0.20707   4.52044
    R8        5.28013   0.00005   0.00000   0.00873   0.00886   5.28898
    R9        5.28010   0.00005   0.00000  -0.00190  -0.00186   5.27824
    A1        2.11473   0.00000   0.00000   0.00208   0.00040   2.11513
    A2        2.09832   0.00001   0.00000  -0.00060  -0.00344   2.09488
    A3        2.06734  -0.00001   0.00000   0.00703   0.00510   2.07244
    A4        1.78325   0.00001   0.00000   0.03226   0.03156   1.81481
    A5        1.70986  -0.00001   0.00000   0.01276   0.01104   1.72090
    A6        2.11471   0.00000   0.00000  -0.00220  -0.00396   2.11075
    A7        2.09832   0.00001   0.00000   0.00119  -0.00193   2.09639
    A8        2.06734  -0.00001   0.00000  -0.00753  -0.00932   2.05803
    A9        1.78319   0.00001   0.00000  -0.03321  -0.03425   1.74894
   A10        1.70985  -0.00001   0.00000  -0.01161  -0.01390   1.69595
   A11        1.98402  -0.00001   0.00000   0.01844   0.01734   2.00136
   A12        1.98398  -0.00001   0.00000  -0.02005  -0.02119   1.96280
   A13        0.91805  -0.00001   0.00000  -0.00045  -0.00104   0.91701
    D1        0.00011  -0.00000   0.00000   0.10059   0.10060   0.10070
    D2        3.05991   0.00001   0.00000  -0.02378  -0.02464   3.03527
    D3       -3.05996  -0.00001   0.00000  -0.02364  -0.02281  -3.08277
    D4       -0.00016   0.00000   0.00000  -0.14801  -0.14805  -0.14821
    D5       -0.61737  -0.00000   0.00000   0.09834   0.09764  -0.51973
    D6        2.60355  -0.00001   0.00000  -0.02233  -0.02256   2.58100
    D7        0.70914  -0.00001   0.00000  -0.07074  -0.06895   0.64018
    D8        0.61759   0.00000   0.00000   0.10086   0.10161   0.71919
    D9       -2.60360   0.00001   0.00000  -0.01993  -0.01968  -2.62327
   D10       -0.70926   0.00001   0.00000  -0.06891  -0.07109  -0.78035
   D11        0.59198  -0.00000   0.00000  -0.03113  -0.03083   0.56115
   D12       -0.59206   0.00000   0.00000  -0.03313  -0.03350  -0.62556
         Item               Value     Threshold  Converged?
 Maximum Force            0.000066     0.000450     YES
 RMS     Force            0.000022     0.000300     YES
 Maximum Displacement     0.305070     0.001800     NO 
 RMS     Displacement     0.072274     0.001200     NO 
 Predicted change in Energy=-3.604982D-05
 GradGradGradGradGradGradGradGradGradGradGradGradGradGradGradGradGradGrad

                          Input orientation:                          
 ---------------------------------------------------------------------
 Center     Atomic      Atomic             Coordinates (Angstroms)
 Number     Number       Type             X           Y           Z
 ---------------------------------------------------------------------
      1          6           0        1.345292    1.521279   -0.712601
      2          6           0        1.347885    1.398108    0.666162
      3          1           0        2.271393    1.512813   -1.279707
      4          1           0        2.279280    1.383161    1.223310
      5          1           0        0.405240    1.589589   -1.249776
      6          1           0        0.424478    1.507375    1.223829
      7         35           0        1.118389   -0.928887    0.161556
      8         35           0       -1.735067    0.258752   -0.032693
 ---------------------------------------------------------------------
                    Distance matrix (angstroms):
                    1          2          3          4          5
     1  C    0.000000
     2  C    1.384256   0.000000
     3  H    1.085976   2.156950   0.000000
     4  H    2.153871   1.085419   2.506386   0.000000
     5  H    1.084861   2.143843   1.867972   3.109790   0.000000
     6  H    2.144260   1.084257   3.111080   1.858957   2.475045
     7  Br   2.611312   2.392112   3.060810   2.796525   2.973745
     8  Br   3.397773   3.360226   4.379434   4.353943   2.798809
                    6          7          8
     6  H    0.000000
     7  Br   2.746873   0.000000
     8  Br   2.793124   3.096842   0.000000
 Stoichiometry    C2H4Br2
 Framework group  C1[X(C2H4Br2)]
 Deg. of freedom    18
 Full point group                 C1      NOp   1
 Largest Abelian subgroup         C1      NOp   1
 Largest concise Abelian subgroup C1      NOp   1
                         Standard orientation:                         
 ---------------------------------------------------------------------
 Center     Atomic      Atomic             Coordinates (Angstroms)
 Number     Number       Type             X           Y           Z
 ---------------------------------------------------------------------
      1          6           0        1.019645    1.806730   -0.631267
      2          6           0        1.114590    1.544527    0.724608
      3          1           0        1.902652    2.022287   -1.225555
      4          1           0        2.061792    1.638785    1.246199
      5          1           0        0.055669    1.761083   -1.126838
      6          1           0        0.216202    1.429060    1.320577
      7         35           0        1.267928   -0.721423   -0.026496
      8         35           0       -1.754835   -0.048828    0.004370
 ---------------------------------------------------------------------
 Rotational constants (GHZ):           3.7032807           1.1948243           0.9627308
 Standard basis: 6-31+G(d) (6D, 7F)
 There are   114 symmetry adapted cartesian basis functions of A   symmetry.
 There are   114 symmetry adapted basis functions of A   symmetry.
   114 basis functions,   254 primitive gaussians,   114 cartesian basis functions
    43 alpha electrons       43 beta electrons
       nuclear repulsion energy       444.1961686114 Hartrees.
 NAtoms=    8 NActive=    8 NUniq=    8 SFac= 1.00D+00 NAtFMM=   60 NAOKFM=F Big=F
 Integral buffers will be    131072 words long.
 Raffenetti 2 integral format.
 Two-electron integral symmetry is turned on.
 One-electron integrals computed using PRISM.
 NBasis=   114 RedAO= T EigKep=  1.76D-04  NBF=   114
 NBsUse=   114 1.00D-06 EigRej= -1.00D+00 NBFU=   114
 Initial guess from the checkpoint file:  "/localscratch/lustra.25374842.0/Gau-200246.chk"
 B after Tr=    -0.000000   -0.000000    0.000000
         Rot=    0.999654   -0.025993   -0.004015   -0.000758 Ang=  -3.02 deg.
 ExpMin= 3.50D-02 ExpMax= 5.74D+05 ExpMxC= 5.74D+03 IAcc=3 IRadAn=         5 AccDes= 0.00D+00
 Harris functional with IExCor=  402 and IRadAn=       5 diagonalized for initial guess.
 HarFok:  IExCor=  402 AccDes= 0.00D+00 IRadAn=         5 IDoV= 1 UseB2=F ITyADJ=14
 ICtDFT=  3500011 ScaDFX=  1.000000  1.000000  1.000000  1.000000
 FoFCou: FMM=F IPFlag=           0 FMFlag=      100000 FMFlg1=           0
         NFxFlg=           0 DoJE=T BraDBF=F KetDBF=T FulRan=T
         wScrn=  0.000000 ICntrl=       500 IOpCl=  0 I1Cent=   200000004 NGrid=           0
         NMat0=    1 NMatS0=      1 NMatT0=    0 NMatD0=    1 NMtDS0=    0 NMtDT0=    0
 Petite list used in FoFCou.
 Keep R1 ints in memory in canonical form, NReq=22528136.
 Requested convergence on RMS density matrix=1.00D-08 within 128 cycles.
 Requested convergence on MAX density matrix=1.00D-06.
 Requested convergence on             energy=1.00D-06.
 No special actions if energy rises.
 SCF Done:  E(RB3LYP) =  -5221.95129284     A.U. after   17 cycles
            NFock= 17  Conv=0.35D-08     -V/T= 2.0063
 Calling FoFJK, ICntrl=      2127 FMM=F ISym2X=0 I1Cent= 0 IOpClX= 0 NMat=1 NMatS=1 NMatT=0.
 ***** Axes restored to original set *****
 -------------------------------------------------------------------
 Center     Atomic                   Forces (Hartrees/Bohr)
 Number     Number              X              Y              Z
 -------------------------------------------------------------------
      1        6           0.000151322   -0.000975552   -0.002240990
      2        6           0.000193128   -0.001072606    0.002478444
      3        1          -0.000016697    0.000578671   -0.000024558
      4        1          -0.000023747    0.000723097    0.000032901
      5        1           0.000105902    0.000441610   -0.000110262
      6        1           0.000128553    0.000675540    0.000137097
      7       35          -0.000425366   -0.000045370   -0.000306514
      8       35          -0.000113095   -0.000325390    0.000033882
 -------------------------------------------------------------------
 Cartesian Forces:  Max     0.002478444 RMS     0.000798284

 GradGradGradGradGradGradGradGradGradGradGradGradGradGradGradGradGradGrad
 Berny optimization.
 FormGI is forming the generalized inverse of G from B-inverse, IUseBI=4.
 Internal  Forces:  Max     0.002209502 RMS     0.000471388
 Search for a saddle point.
 Step number   2 out of a maximum of   44
 All quantities printed in internal units (Hartrees-Bohrs-Radians)
 Swapping is turned off.
 Update second derivatives using D2CorX and points    1    2
 ITU=  0  0
     Eigenvalues ---   -0.03812   0.00069   0.00397   0.00581   0.01515
     Eigenvalues ---    0.01533   0.02728   0.02950   0.04674   0.09681
     Eigenvalues ---    0.10320   0.12722   0.16568   0.33278   0.36045
     Eigenvalues ---    0.36886   0.36930   0.46076
 Eigenvectors required to have negative eigenvalues:
                          R7        R4        D6        D9        A10
   1                   -0.60920  -0.60730   0.17685  -0.16572   0.16524
                          A12       A11       A5        D7        D10
   1                    0.16238   0.15832   0.13398   0.12426  -0.11626
 RFO step:  Lambda0=2.722896602D-07 Lambda=-1.55634453D-04.
 Linear search not attempted -- option 19 set.
 Iteration  1 RMS(Cart)=  0.05850062 RMS(Int)=  0.00216179
 Iteration  2 RMS(Cart)=  0.00154542 RMS(Int)=  0.00083470
 Iteration  3 RMS(Cart)=  0.00000065 RMS(Int)=  0.00083470
 Variable       Old X    -DE/DX   Delta X   Delta X   Delta X     New X
                                 (Linear)    (Quad)   (Total)
    R1        2.61586   0.00221   0.00000   0.00004   0.00039   2.61625
    R2        2.05220  -0.00001   0.00000  -0.00043  -0.00043   2.05177
    R3        2.05009  -0.00005   0.00000  -0.00033  -0.00040   2.04969
    R4        4.93466  -0.00019   0.00000  -0.16617  -0.16671   4.76795
    R5        2.05114  -0.00001   0.00000   0.00042   0.00042   2.05157
    R6        2.04895  -0.00002   0.00000   0.00057   0.00052   2.04947
    R7        4.52044   0.00034   0.00000   0.16610   0.16638   4.68682
    R8        5.28898   0.00019   0.00000   0.00331   0.00337   5.29235
    R9        5.27824   0.00019   0.00000   0.01122   0.01126   5.28950
    A1        2.11513   0.00001   0.00000   0.00084  -0.00033   2.11480
    A2        2.09488  -0.00001   0.00000   0.00585   0.00390   2.09877
    A3        2.07244   0.00001   0.00000  -0.00310  -0.00433   2.06811
    A4        1.81481   0.00052   0.00000  -0.02421  -0.02452   1.79029
    A5        1.72090  -0.00032   0.00000  -0.00624  -0.00721   1.71369
    A6        2.11075  -0.00005   0.00000   0.00410   0.00307   2.11382
    A7        2.09639   0.00001   0.00000   0.00432   0.00250   2.09889
    A8        2.05803  -0.00002   0.00000   0.00842   0.00725   2.06528
    A9        1.74894   0.00086   0.00000   0.03017   0.02929   1.77823
   A10        1.69595  -0.00002   0.00000   0.01622   0.01453   1.71047
   A11        2.00136  -0.00029   0.00000  -0.01551  -0.01616   1.98520
   A12        1.96280  -0.00032   0.00000   0.01542   0.01463   1.97743
   A13        0.91701   0.00042   0.00000   0.00001  -0.00037   0.91664
    D1        0.10070  -0.00004   0.00000  -0.08035  -0.08014   0.02057
    D2        3.03527  -0.00034   0.00000   0.01624   0.01570   3.05097
    D3       -3.08277   0.00032   0.00000   0.02090   0.02150  -3.06128
    D4       -0.14821   0.00002   0.00000   0.11749   0.11733  -0.03087
    D5       -0.51973  -0.00013   0.00000  -0.08127  -0.08154  -0.60128
    D6        2.58100   0.00022   0.00000   0.01761   0.01749   2.59849
    D7        0.64018  -0.00021   0.00000   0.05187   0.05290   0.69309
    D8        0.71919   0.00004   0.00000  -0.07693  -0.07625   0.64294
    D9       -2.62327  -0.00026   0.00000   0.01630   0.01649  -2.60679
   D10       -0.78035   0.00073   0.00000   0.06329   0.06174  -0.71861
   D11        0.56115   0.00015   0.00000   0.02792   0.02801   0.58916
   D12       -0.62556  -0.00014   0.00000   0.02327   0.02291  -0.60265
         Item               Value     Threshold  Converged?
 Maximum Force            0.002210     0.000450     NO 
 RMS     Force            0.000471     0.000300     NO 
 Maximum Displacement     0.247173     0.001800     NO 
 RMS     Displacement     0.058487     0.001200     NO 
 Predicted change in Energy=-8.540955D-05
 GradGradGradGradGradGradGradGradGradGradGradGradGradGradGradGradGradGrad

                          Input orientation:                          
 ---------------------------------------------------------------------
 Center     Atomic      Atomic             Coordinates (Angstroms)
 Number     Number       Type             X           Y           Z
 ---------------------------------------------------------------------
      1          6           0        1.346968    1.471962   -0.696579
      2          6           0        1.347232    1.447424    0.687664
      3          1           0        2.275652    1.461501   -1.258977
      4          1           0        2.276809    1.436162    1.248357
      5          1           0        0.413045    1.558132   -1.241392
      6          1           0        0.416483    1.542990    1.236104
      7         35           0        1.118068   -0.933152    0.030758
      8         35           0       -1.737367    0.257171   -0.005856
 ---------------------------------------------------------------------
                    Distance matrix (angstroms):
                    1          2          3          4          5
     1  C    0.000000
     2  C    1.384461   0.000000
     3  H    1.085751   2.156751   0.000000
     4  H    2.156076   1.085642   2.507463   0.000000
     5  H    1.084647   2.146211   1.865195   3.112450   0.000000
     6  H    2.146185   1.084533   3.112648   1.863431   2.477545
     7  Br   2.523092   2.480159   2.955974   2.904975   2.884774
     8  Br   3.386140   3.378228   4.373219   4.367686   2.800593
                    6          7          8
     6  H    0.000000
     7  Br   2.841894   0.000000
     8  Br   2.799083   3.093819   0.000000
 Stoichiometry    C2H4Br2
 Framework group  C1[X(C2H4Br2)]
 Deg. of freedom    18
 Full point group                 C1      NOp   1
 Largest Abelian subgroup         C1      NOp   1
 Largest concise Abelian subgroup C1      NOp   1
                         Standard orientation:                         
 ---------------------------------------------------------------------
 Center     Atomic      Atomic             Coordinates (Angstroms)
 Number     Number       Type             X           Y           Z
 ---------------------------------------------------------------------
      1          6           0        1.067203    1.698147   -0.682377
      2          6           0        1.085041    1.646322    0.700998
      3          1           0        1.978305    1.859434   -1.250473
      4          1           0        2.007992    1.784498    1.255694
      5          1           0        0.127204    1.632670   -1.219570
      6          1           0        0.157091    1.568767    1.256970
      7         35           0        1.263597   -0.724439   -0.005254
      8         35           0       -1.754570   -0.044480    0.000844
 ---------------------------------------------------------------------
 Rotational constants (GHZ):           3.7041803           1.1947073           0.9645297
 Standard basis: 6-31+G(d) (6D, 7F)
 There are   114 symmetry adapted cartesian basis functions of A   symmetry.
 There are   114 symmetry adapted basis functions of A   symmetry.
   114 basis functions,   254 primitive gaussians,   114 cartesian basis functions
    43 alpha electrons       43 beta electrons
       nuclear repulsion energy       444.0765836356 Hartrees.
 NAtoms=    8 NActive=    8 NUniq=    8 SFac= 1.00D+00 NAtFMM=   60 NAOKFM=F Big=F
 Integral buffers will be    131072 words long.
 Raffenetti 2 integral format.
 Two-electron integral symmetry is turned on.
 One-electron integrals computed using PRISM.
 NBasis=   114 RedAO= T EigKep=  1.80D-04  NBF=   114
 NBsUse=   114 1.00D-06 EigRej= -1.00D+00 NBFU=   114
 Initial guess from the checkpoint file:  "/localscratch/lustra.25374842.0/Gau-200246.chk"
 B after Tr=     0.000000    0.000000    0.000000
         Rot=    0.999775    0.020885    0.003208    0.001660 Ang=   2.43 deg.
 ExpMin= 3.50D-02 ExpMax= 5.74D+05 ExpMxC= 5.74D+03 IAcc=3 IRadAn=         5 AccDes= 0.00D+00
 Harris functional with IExCor=  402 and IRadAn=       5 diagonalized for initial guess.
 HarFok:  IExCor=  402 AccDes= 0.00D+00 IRadAn=         5 IDoV= 1 UseB2=F ITyADJ=14
 ICtDFT=  3500011 ScaDFX=  1.000000  1.000000  1.000000  1.000000
 FoFCou: FMM=F IPFlag=           0 FMFlag=      100000 FMFlg1=           0
         NFxFlg=           0 DoJE=T BraDBF=F KetDBF=T FulRan=T
         wScrn=  0.000000 ICntrl=       500 IOpCl=  0 I1Cent=   200000004 NGrid=           0
         NMat0=    1 NMatS0=      1 NMatT0=    0 NMatD0=    1 NMtDS0=    0 NMtDT0=    0
 Petite list used in FoFCou.
 Keep R1 ints in memory in canonical form, NReq=22528179.
 Requested convergence on RMS density matrix=1.00D-08 within 128 cycles.
 Requested convergence on MAX density matrix=1.00D-06.
 Requested convergence on             energy=1.00D-06.
 No special actions if energy rises.
 SCF Done:  E(RB3LYP) =  -5221.95132185     A.U. after   17 cycles
            NFock= 17  Conv=0.73D-08     -V/T= 2.0063
 Calling FoFJK, ICntrl=      2127 FMM=F ISym2X=0 I1Cent= 0 IOpClX= 0 NMat=1 NMatS=1 NMatT=0.
 ***** Axes restored to original set *****
 -------------------------------------------------------------------
 Center     Atomic                   Forces (Hartrees/Bohr)
 Number     Number              X              Y              Z
 -------------------------------------------------------------------
      1        6          -0.000028370    0.000109852    0.000360414
      2        6          -0.000026463    0.000204486   -0.000412014
      3        1           0.000003182   -0.000086357    0.000004071
      4        1           0.000004263   -0.000121597   -0.000003210
      5        1          -0.000008900   -0.000043288    0.000022186
      6        1          -0.000017102   -0.000128051   -0.000011058
      7       35           0.000065357    0.000018259    0.000044032
      8       35           0.000008033    0.000046697   -0.000004421
 -------------------------------------------------------------------
 Cartesian Forces:  Max     0.000412014 RMS     0.000129969

 GradGradGradGradGradGradGradGradGradGradGradGradGradGradGradGradGradGrad
 Berny optimization.
 FormGI is forming the generalized inverse of G from B-inverse, IUseBI=4.
 Internal  Forces:  Max     0.000357822 RMS     0.000075313
 Search for a saddle point.
 Step number   3 out of a maximum of   44
 All quantities printed in internal units (Hartrees-Bohrs-Radians)
 Swapping is turned off.
 Update second derivatives using D2CorX and points    1    2    3
 ITU=  0  0  0
     Eigenvalues ---   -0.03814   0.00082   0.00397   0.00600   0.01519
     Eigenvalues ---    0.01537   0.02738   0.03032   0.04705   0.09748
     Eigenvalues ---    0.10429   0.12749   0.16679   0.33285   0.36064
     Eigenvalues ---    0.36887   0.36931   0.46355
 Eigenvectors required to have negative eigenvalues:
                          R4        R7        D6        D9        A12
   1                   -0.61299  -0.60399   0.17303  -0.16983   0.16165
                          A11       A10       A5        D7        D10
   1                    0.16006   0.15358   0.14665   0.12179  -0.11647
 RFO step:  Lambda0=1.375452574D-08 Lambda=-1.84056552D-06.
 Linear search not attempted -- option 19 set.
 Iteration  1 RMS(Cart)=  0.00305128 RMS(Int)=  0.00000553
 Iteration  2 RMS(Cart)=  0.00000388 RMS(Int)=  0.00000205
 Iteration  3 RMS(Cart)=  0.00000000 RMS(Int)=  0.00000205
 Variable       Old X    -DE/DX   Delta X   Delta X   Delta X     New X
                                 (Linear)    (Quad)   (Total)
    R1        2.61625  -0.00036   0.00000  -0.00057  -0.00057   2.61568
    R2        2.05177   0.00000   0.00000   0.00002   0.00002   2.05179
    R3        2.04969   0.00000   0.00000   0.00001   0.00001   2.04969
    R4        4.76795   0.00002   0.00000   0.00829   0.00829   4.77624
    R5        2.05157   0.00000   0.00000  -0.00002  -0.00002   2.05155
    R6        2.04947   0.00001   0.00000  -0.00002  -0.00002   2.04945
    R7        4.68682  -0.00006   0.00000  -0.00802  -0.00802   4.67880
    R8        5.29235  -0.00002   0.00000  -0.00119  -0.00119   5.29116
    R9        5.28950  -0.00003   0.00000  -0.00221  -0.00221   5.28729
    A1        2.11480   0.00000   0.00000   0.00014   0.00014   2.11494
    A2        2.09877   0.00000   0.00000  -0.00014  -0.00014   2.09863
    A3        2.06811  -0.00000   0.00000   0.00028   0.00028   2.06839
    A4        1.79029  -0.00009   0.00000   0.00032   0.00032   1.79061
    A5        1.71369   0.00005   0.00000   0.00058   0.00058   1.71427
    A6        2.11382   0.00001   0.00000   0.00007   0.00007   2.11389
    A7        2.09889   0.00000   0.00000   0.00004   0.00004   2.09893
    A8        2.06528  -0.00000   0.00000  -0.00027  -0.00027   2.06500
    A9        1.77823  -0.00013   0.00000  -0.00280  -0.00281   1.77543
   A10        1.71047   0.00000   0.00000  -0.00165  -0.00165   1.70882
   A11        1.98520   0.00004   0.00000   0.00095   0.00094   1.98614
   A12        1.97743   0.00005   0.00000   0.00000   0.00000   1.97743
   A13        0.91664  -0.00007   0.00000   0.00018   0.00018   0.91682
    D1        0.02057  -0.00001   0.00000   0.00331   0.00331   0.02388
    D2        3.05097   0.00006   0.00000   0.00149   0.00149   3.05246
    D3       -3.06128  -0.00005   0.00000  -0.00248  -0.00248  -3.06375
    D4       -0.03087   0.00002   0.00000  -0.00430  -0.00430  -0.03517
    D5       -0.60128   0.00000   0.00000   0.00390   0.00390  -0.59737
    D6        2.59849  -0.00003   0.00000  -0.00173  -0.00173   2.59675
    D7        0.69309   0.00004   0.00000  -0.00257  -0.00257   0.69052
    D8        0.64294  -0.00002   0.00000   0.00203   0.00204   0.64498
    D9       -2.60679   0.00004   0.00000   0.00029   0.00029  -2.60650
   D10       -0.71861  -0.00011   0.00000  -0.00412  -0.00413  -0.72273
   D11        0.58916  -0.00002   0.00000  -0.00180  -0.00180   0.58737
   D12       -0.60265   0.00003   0.00000  -0.00009  -0.00009  -0.60274
         Item               Value     Threshold  Converged?
 Maximum Force            0.000358     0.000450     YES
 RMS     Force            0.000075     0.000300     YES
 Maximum Displacement     0.012870     0.001800     NO 
 RMS     Displacement     0.003052     0.001200     NO 
 Predicted change in Energy=-9.133777D-07
 GradGradGradGradGradGradGradGradGradGradGradGradGradGradGradGradGradGrad

                          Input orientation:                          
 ---------------------------------------------------------------------
 Center     Atomic      Atomic             Coordinates (Angstroms)
 Number     Number       Type             X           Y           Z
 ---------------------------------------------------------------------
      1          6           0        1.346771    1.474696   -0.697373
      2          6           0        1.347192    1.445627    0.686479
      3          1           0        2.275263    1.463522   -1.260097
      4          1           0        2.276789    1.433038    1.247096
      5          1           0        0.412478    1.559826   -1.241724
      6          1           0        0.416669    1.540571    1.235389
      7         35           0        1.118755   -0.932796    0.037568
      8         35           0       -1.737027    0.257707   -0.007258
 ---------------------------------------------------------------------
                    Distance matrix (angstroms):
                    1          2          3          4          5
     1  C    0.000000
     2  C    1.384157   0.000000
     3  H    1.085763   2.156571   0.000000
     4  H    2.155835   1.085634   2.507379   0.000000
     5  H    1.084651   2.145856   1.865363   3.112226   0.000000
     6  H    2.145925   1.084522   3.112516   1.863262   2.477190
     7  Br   2.527479   2.475917   2.960369   2.898477   2.889391
     8  Br   3.386316   3.377104   4.372879   4.366409   2.799963
                    6          7          8
     6  H    0.000000
     7  Br   2.836414   0.000000
     8  Br   2.797913   3.094317   0.000000
 Stoichiometry    C2H4Br2
 Framework group  C1[X(C2H4Br2)]
 Deg. of freedom    18
 Full point group                 C1      NOp   1
 Largest Abelian subgroup         C1      NOp   1
 Largest concise Abelian subgroup C1      NOp   1
                         Standard orientation:                         
 ---------------------------------------------------------------------
 Center     Atomic      Atomic             Coordinates (Angstroms)
 Number     Number       Type             X           Y           Z
 ---------------------------------------------------------------------
      1          6           0        1.064103    1.703746   -0.680041
      2          6           0        1.085893    1.641483    0.702544
      3          1           0        1.973845    1.867108   -1.249745
      4          1           0        2.010243    1.776277    1.255724
      5          1           0        0.122787    1.639168   -1.215038
      6          1           0        0.159514    1.560587    1.260634
      7         35           0        1.264195   -0.724066   -0.006363
      8         35           0       -1.754663   -0.044920    0.001032
 ---------------------------------------------------------------------
 Rotational constants (GHZ):           3.7047055           1.1945304           0.9643955
 Standard basis: 6-31+G(d) (6D, 7F)
 There are   114 symmetry adapted cartesian basis functions of A   symmetry.
 There are   114 symmetry adapted basis functions of A   symmetry.
   114 basis functions,   254 primitive gaussians,   114 cartesian basis functions
    43 alpha electrons       43 beta electrons
       nuclear repulsion energy       444.0693820007 Hartrees.
 NAtoms=    8 NActive=    8 NUniq=    8 SFac= 1.00D+00 NAtFMM=   60 NAOKFM=F Big=F
 Integral buffers will be    131072 words long.
 Raffenetti 2 integral format.
 Two-electron integral symmetry is turned on.
 One-electron integrals computed using PRISM.
 NBasis=   114 RedAO= T EigKep=  1.80D-04  NBF=   114
 NBsUse=   114 1.00D-06 EigRej= -1.00D+00 NBFU=   114
 Initial guess from the checkpoint file:  "/localscratch/lustra.25374842.0/Gau-200246.chk"
 B after Tr=    -0.000000   -0.000000   -0.000000
         Rot=    0.999999   -0.001076   -0.000167   -0.000184 Ang=  -0.13 deg.
 Keep R1 ints in memory in canonical form, NReq=22528179.
 Requested convergence on RMS density matrix=1.00D-08 within 128 cycles.
 Requested convergence on MAX density matrix=1.00D-06.
 Requested convergence on             energy=1.00D-06.
 No special actions if energy rises.
 SCF Done:  E(RB3LYP) =  -5221.95132312     A.U. after   12 cycles
            NFock= 12  Conv=0.48D-08     -V/T= 2.0063
 Calling FoFJK, ICntrl=      2127 FMM=F ISym2X=0 I1Cent= 0 IOpClX= 0 NMat=1 NMatS=1 NMatT=0.
 ***** Axes restored to original set *****
 -------------------------------------------------------------------
 Center     Atomic                   Forces (Hartrees/Bohr)
 Number     Number              X              Y              Z
 -------------------------------------------------------------------
      1        6          -0.000001334    0.000071531    0.000066483
      2        6          -0.000010001   -0.000004850   -0.000088508
      3        1           0.000001345   -0.000023639    0.000001187
      4        1           0.000000633   -0.000020366   -0.000001650
      5        1          -0.000004234   -0.000022226    0.000005035
      6        1          -0.000002828   -0.000016799   -0.000004063
      7       35           0.000011292    0.000002819    0.000021545
      8       35           0.000005127    0.000013530   -0.000000029
 -------------------------------------------------------------------
 Cartesian Forces:  Max     0.000088508 RMS     0.000028960

 GradGradGradGradGradGradGradGradGradGradGradGradGradGradGradGradGradGrad
 Berny optimization.
 FormGI is forming the generalized inverse of G from B-inverse, IUseBI=4.
 Internal  Forces:  Max     0.000072671 RMS     0.000016678
 Search for a saddle point.
 Step number   4 out of a maximum of   44
 All quantities printed in internal units (Hartrees-Bohrs-Radians)
 Swapping is turned off.
 Update second derivatives using D2CorX and points    1    2    3    4
 ITU=  0  0  0  0
     Eigenvalues ---   -0.03812  -0.00045   0.00397   0.00596   0.01518
     Eigenvalues ---    0.01530   0.02724   0.02899   0.04701   0.09747
     Eigenvalues ---    0.10427   0.12748   0.16663   0.33285   0.36057
     Eigenvalues ---    0.36886   0.36931   0.46127
 Eigenvectors required to have negative eigenvalues:
                          R4        R7        D6        D9        A12
   1                   -0.60998  -0.60715   0.17283  -0.16995   0.16131
                          A11       A10       A5        D7        D10
   1                    0.15999   0.15404   0.14625   0.12070  -0.11733
 RFO step:  Lambda0=2.224362049D-10 Lambda=-4.54114933D-04.
 Linear search not attempted -- option 19 set.
 Maximum step size (   0.300) exceeded in Quadratic search.
    -- Step size scaled by   0.529
 Iteration  1 RMS(Cart)=  0.06969999 RMS(Int)=  0.00345407
 Iteration  2 RMS(Cart)=  0.00320299 RMS(Int)=  0.00131902
 Iteration  3 RMS(Cart)=  0.00000319 RMS(Int)=  0.00131901
 Iteration  4 RMS(Cart)=  0.00000000 RMS(Int)=  0.00131901
 Variable       Old X    -DE/DX   Delta X   Delta X   Delta X     New X
                                 (Linear)    (Quad)   (Total)
    R1        2.61568  -0.00007   0.00000   0.00237   0.00297   2.61865
    R2        2.05179   0.00000   0.00000   0.00054   0.00054   2.05233
    R3        2.04969   0.00000   0.00000   0.00053   0.00040   2.05010
    R4        4.77624   0.00002   0.00000   0.20801   0.20732   4.98357
    R5        2.05155  -0.00000   0.00000  -0.00055  -0.00055   2.05100
    R6        2.04945   0.00000   0.00000  -0.00058  -0.00064   2.04881
    R7        4.67880  -0.00003   0.00000  -0.20672  -0.20641   4.47239
    R8        5.29116  -0.00001   0.00000   0.00418   0.00426   5.29543
    R9        5.28729  -0.00001   0.00000  -0.01000  -0.00992   5.27737
    A1        2.11494  -0.00000   0.00000   0.00094  -0.00049   2.11445
    A2        2.09863   0.00000   0.00000  -0.00223  -0.00502   2.09361
    A3        2.06839   0.00000   0.00000   0.00672   0.00497   2.07335
    A4        1.79061  -0.00001   0.00000   0.03809   0.03729   1.82790
    A5        1.71427   0.00001   0.00000   0.00933   0.00784   1.72211
    A6        2.11389   0.00000   0.00000  -0.00358  -0.00579   2.10810
    A7        2.09893   0.00000   0.00000  -0.00109  -0.00458   2.09435
    A8        2.06500  -0.00000   0.00000  -0.00814  -0.01032   2.05469
    A9        1.77543  -0.00003   0.00000  -0.02516  -0.02608   1.74935
   A10        1.70882  -0.00000   0.00000  -0.01257  -0.01504   1.69378
   A11        1.98614   0.00001   0.00000   0.01845   0.01727   2.00341
   A12        1.97743   0.00001   0.00000  -0.01978  -0.02090   1.95653
   A13        0.91682  -0.00001   0.00000   0.00055  -0.00009   0.91673
    D1        0.02388   0.00001   0.00000   0.10316   0.10308   0.12695
    D2        3.05246   0.00001   0.00000  -0.03182  -0.03264   3.01982
    D3       -3.06375  -0.00001   0.00000  -0.01639  -0.01563  -3.07938
    D4       -0.03517  -0.00001   0.00000  -0.15136  -0.15135  -0.18652
    D5       -0.59737   0.00001   0.00000   0.10208   0.10144  -0.49594
    D6        2.59675  -0.00001   0.00000  -0.01414  -0.01432   2.58243
    D7        0.69052   0.00000   0.00000  -0.06754  -0.06579   0.62473
    D8        0.64498   0.00000   0.00000   0.10223   0.10298   0.74796
    D9       -2.60650   0.00001   0.00000  -0.02874  -0.02838  -2.63488
   D10       -0.72273  -0.00003   0.00000  -0.06872  -0.07094  -0.79367
   D11        0.58737  -0.00001   0.00000  -0.03288  -0.03273   0.55463
   D12       -0.60274   0.00000   0.00000  -0.03312  -0.03364  -0.63638
         Item               Value     Threshold  Converged?
 Maximum Force            0.000073     0.000450     YES
 RMS     Force            0.000017     0.000300     YES
 Maximum Displacement     0.302588     0.001800     NO 
 RMS     Displacement     0.071903     0.001200     NO 
 Predicted change in Energy=-5.081171D-05
 GradGradGradGradGradGradGradGradGradGradGradGradGradGradGradGradGradGrad

                          Input orientation:                          
 ---------------------------------------------------------------------
 Center     Atomic      Atomic             Coordinates (Angstroms)
 Number     Number       Type             X           Y           Z
 ---------------------------------------------------------------------
      1          6           0        1.345680    1.533668   -0.717361
      2          6           0        1.348251    1.380459    0.659870
      3          1           0        2.271814    1.531171   -1.284608
      4          1           0        2.280187    1.371795    1.216095
      5          1           0        0.404745    1.598465   -1.253433
      6          1           0        0.427554    1.498396    1.220102
      7         35           0        1.113116   -0.928722    0.197691
      8         35           0       -1.734457    0.256959   -0.038276
 ---------------------------------------------------------------------
                    Distance matrix (angstroms):
                    1          2          3          4          5
     1  C    0.000000
     2  C    1.385730   0.000000
     3  H    1.086048   2.157934   0.000000
     4  H    2.153546   1.085341   2.505791   0.000000
     5  H    1.084864   2.144402   1.868542   3.109217   0.000000
     6  H    2.144287   1.084183   3.110618   1.856959   2.475663
     7  Br   2.637190   2.366689   3.096912   2.773370   2.999037
     8  Br   3.402703   3.354512   4.384879   4.351284   2.802218
                    6          7          8
     6  H    0.000000
     7  Br   2.721438   0.000000
     8  Br   2.792664   3.093572   0.000000
 Stoichiometry    C2H4Br2
 Framework group  C1[X(C2H4Br2)]
 Deg. of freedom    18
 Full point group                 C1      NOp   1
 Largest Abelian subgroup         C1      NOp   1
 Largest concise Abelian subgroup C1      NOp   1
                         Standard orientation:                         
 ---------------------------------------------------------------------
 Center     Atomic      Atomic             Coordinates (Angstroms)
 Number     Number       Type             X           Y           Z
 ---------------------------------------------------------------------
      1          6           0        1.010386    1.837139   -0.614843
      2          6           0        1.125351    1.514749    0.727950
      3          1           0        1.885721    2.072956   -1.212906
      4          1           0        2.077501    1.604152    1.241159
      5          1           0        0.040911    1.798338   -1.100171
      6          1           0        0.234899    1.393413    1.334436
      7         35           0        1.265956   -0.722144   -0.032153
      8         35           0       -1.753197   -0.048719    0.005263
 ---------------------------------------------------------------------
 Rotational constants (GHZ):           3.6975994           1.1976590           0.9633389
 Standard basis: 6-31+G(d) (6D, 7F)
 There are   114 symmetry adapted cartesian basis functions of A   symmetry.
 There are   114 symmetry adapted basis functions of A   symmetry.
   114 basis functions,   254 primitive gaussians,   114 cartesian basis functions
    43 alpha electrons       43 beta electrons
       nuclear repulsion energy       444.4784716869 Hartrees.
 NAtoms=    8 NActive=    8 NUniq=    8 SFac= 1.00D+00 NAtFMM=   60 NAOKFM=F Big=F
 Integral buffers will be    131072 words long.
 Raffenetti 2 integral format.
 Two-electron integral symmetry is turned on.
 One-electron integrals computed using PRISM.
 NBasis=   114 RedAO= T EigKep=  1.76D-04  NBF=   114
 NBsUse=   114 1.00D-06 EigRej= -1.00D+00 NBFU=   114
 Initial guess from the checkpoint file:  "/localscratch/lustra.25374842.0/Gau-200246.chk"
 B after Tr=     0.000000    0.000000    0.000000
         Rot=    0.999665   -0.025551   -0.003872   -0.001337 Ang=  -2.97 deg.
 ExpMin= 3.50D-02 ExpMax= 5.74D+05 ExpMxC= 5.74D+03 IAcc=3 IRadAn=         5 AccDes= 0.00D+00
 Harris functional with IExCor=  402 and IRadAn=       5 diagonalized for initial guess.
 HarFok:  IExCor=  402 AccDes= 0.00D+00 IRadAn=         5 IDoV= 1 UseB2=F ITyADJ=14
 ICtDFT=  3500011 ScaDFX=  1.000000  1.000000  1.000000  1.000000
 FoFCou: FMM=F IPFlag=           0 FMFlag=      100000 FMFlg1=           0
         NFxFlg=           0 DoJE=T BraDBF=F KetDBF=T FulRan=T
         wScrn=  0.000000 ICntrl=       500 IOpCl=  0 I1Cent=   200000004 NGrid=           0
         NMat0=    1 NMatS0=      1 NMatT0=    0 NMatD0=    1 NMtDS0=    0 NMtDT0=    0
 Petite list used in FoFCou.
 Keep R1 ints in memory in canonical form, NReq=22528206.
 Requested convergence on RMS density matrix=1.00D-08 within 128 cycles.
 Requested convergence on MAX density matrix=1.00D-06.
 Requested convergence on             energy=1.00D-06.
 No special actions if energy rises.
 SCF Done:  E(RB3LYP) =  -5221.95126866     A.U. after   17 cycles
            NFock= 17  Conv=0.51D-08     -V/T= 2.0063
 Calling FoFJK, ICntrl=      2127 FMM=F ISym2X=0 I1Cent= 0 IOpClX= 0 NMat=1 NMatS=1 NMatT=0.
 ***** Axes restored to original set *****
 -------------------------------------------------------------------
 Center     Atomic                   Forces (Hartrees/Bohr)
 Number     Number              X              Y              Z
 -------------------------------------------------------------------
      1        6           0.000180401   -0.001324753   -0.002214823
      2        6           0.000173632   -0.000659463    0.002604582
      3        1          -0.000041225    0.000643612   -0.000036769
      4        1           0.000011104    0.000597512    0.000033409
      5        1           0.000103739    0.000522677   -0.000137180
      6        1           0.000152752    0.000710026    0.000158273
      7       35          -0.000388526   -0.000112107   -0.000427315
      8       35          -0.000191877   -0.000377504    0.000019823
 -------------------------------------------------------------------
 Cartesian Forces:  Max     0.002604582 RMS     0.000819007

 GradGradGradGradGradGradGradGradGradGradGradGradGradGradGradGradGradGrad
 Berny optimization.
 FormGI is forming the generalized inverse of G from B-inverse, IUseBI=4.
 Internal  Forces:  Max     0.002263304 RMS     0.000486296
 Search for a saddle point.
 Step number   5 out of a maximum of   44
 All quantities printed in internal units (Hartrees-Bohrs-Radians)
 Swapping is turned off.
 Update second derivatives using D2CorX and points    1    2    3    4    5
 ITU=  0  0  0  0  0
     Eigenvalues ---   -0.03806   0.00124   0.00397   0.00599   0.01514
     Eigenvalues ---    0.01528   0.02717   0.02864   0.04656   0.09642
     Eigenvalues ---    0.10257   0.12705   0.16512   0.33274   0.36033
     Eigenvalues ---    0.36886   0.36930   0.45919
 Eigenvectors required to have negative eigenvalues:
                          R7        R4        D6        A10       D9
   1                   -0.60954  -0.60697   0.17832   0.16902  -0.16436
                          A12       A11       A5        D7        D10
   1                    0.16239   0.15730   0.13038   0.12519  -0.11453
 RFO step:  Lambda0=2.008433210D-07 Lambda=-2.29839117D-04.
 Linear search not attempted -- option 19 set.
 Iteration  1 RMS(Cart)=  0.05771490 RMS(Int)=  0.00214721
 Iteration  2 RMS(Cart)=  0.00153408 RMS(Int)=  0.00085471
 Iteration  3 RMS(Cart)=  0.00000067 RMS(Int)=  0.00085471
 Variable       Old X    -DE/DX   Delta X   Delta X   Delta X     New X
                                 (Linear)    (Quad)   (Total)
    R1        2.61865   0.00226   0.00000  -0.00184  -0.00147   2.61718
    R2        2.05233  -0.00002   0.00000  -0.00044  -0.00044   2.05189
    R3        2.05010  -0.00001   0.00000  -0.00020  -0.00028   2.04981
    R4        4.98357  -0.00031   0.00000  -0.16525  -0.16586   4.81771
    R5        2.05100   0.00002   0.00000   0.00045   0.00045   2.05145
    R6        2.04881   0.00000   0.00000   0.00057   0.00053   2.04934
    R7        4.47239   0.00052   0.00000   0.16425   0.16461   4.63700
    R8        5.29543   0.00022   0.00000   0.00104   0.00110   5.29653
    R9        5.27737   0.00026   0.00000   0.01323   0.01327   5.29064
    A1        2.11445   0.00007   0.00000   0.00156   0.00056   2.11501
    A2        2.09361  -0.00002   0.00000   0.00653   0.00467   2.09828
    A3        2.07335  -0.00002   0.00000  -0.00279  -0.00389   2.06946
    A4        1.82790   0.00046   0.00000  -0.02776  -0.02813   1.79977
    A5        1.72211  -0.00029   0.00000  -0.00486  -0.00565   1.71646
    A6        2.10810  -0.00004   0.00000   0.00592   0.00461   2.11271
    A7        2.09435   0.00000   0.00000   0.00622   0.00416   2.09851
    A8        2.05469  -0.00000   0.00000   0.00984   0.00845   2.06314
    A9        1.74935   0.00083   0.00000   0.02359   0.02280   1.77215
   A10        1.69378   0.00009   0.00000   0.01659   0.01479   1.70858
   A11        2.00341  -0.00028   0.00000  -0.01377  -0.01444   1.98897
   A12        1.95653  -0.00031   0.00000   0.01596   0.01518   1.97171
   A13        0.91673   0.00042   0.00000  -0.00006  -0.00046   0.91628
    D1        0.12695  -0.00016   0.00000  -0.08228  -0.08212   0.04484
    D2        3.01982  -0.00035   0.00000   0.02222   0.02167   3.04149
    D3       -3.07938   0.00030   0.00000   0.01425   0.01478  -3.06460
    D4       -0.18652   0.00011   0.00000   0.11875   0.11857  -0.06795
    D5       -0.49594  -0.00021   0.00000  -0.08169  -0.08193  -0.57786
    D6        2.58243   0.00024   0.00000   0.01273   0.01262   2.59505
    D7        0.62473  -0.00011   0.00000   0.05047   0.05143   0.67616
    D8        0.74796  -0.00002   0.00000  -0.07919  -0.07852   0.66944
    D9       -2.63488  -0.00021   0.00000   0.02164   0.02185  -2.61303
   D10       -0.79367   0.00080   0.00000   0.06137   0.05979  -0.73388
   D11        0.55463   0.00019   0.00000   0.02777   0.02780   0.58243
   D12       -0.63638  -0.00014   0.00000   0.02474   0.02433  -0.61205
         Item               Value     Threshold  Converged?
 Maximum Force            0.002263     0.000450     NO 
 RMS     Force            0.000486     0.000300     NO 
 Maximum Displacement     0.243094     0.001800     NO 
 RMS     Displacement     0.057700     0.001200     NO 
 Predicted change in Energy=-1.262091D-04
 GradGradGradGradGradGradGradGradGradGradGradGradGradGradGradGradGradGrad

                          Input orientation:                          
 ---------------------------------------------------------------------
 Center     Atomic      Atomic             Coordinates (Angstroms)
 Number     Number       Type             X           Y           Z
 ---------------------------------------------------------------------
      1          6           0        1.346882    1.486078   -0.701958
      2          6           0        1.347596    1.431746    0.681926
      3          1           0        2.275053    1.477919   -1.265361
      4          1           0        2.277858    1.421194    1.241378
      5          1           0        0.411289    1.568060   -1.244682
      6          1           0        0.419177    1.534154    1.232939
      7         35           0        1.116672   -0.933032    0.069051
      8         35           0       -1.737637    0.256072   -0.013214
 ---------------------------------------------------------------------
                    Distance matrix (angstroms):
                    1          2          3          4          5
     1  C    0.000000
     2  C    1.384950   0.000000
     3  H    1.085813   2.157367   0.000000
     4  H    2.155801   1.085580   2.507382   0.000000
     5  H    1.084715   2.146408   1.866058   3.112257   0.000000
     6  H    2.146340   1.084466   3.112706   1.862130   2.477865
     7  Br   2.549421   2.453797   2.989179   2.874906   2.911859
     8  Br   3.391392   3.374032   4.377495   4.365284   2.802803
                    6          7          8
     6  H    0.000000
     7  Br   2.815696   0.000000
     8  Br   2.799685   3.093188   0.000000
 Stoichiometry    C2H4Br2
 Framework group  C1[X(C2H4Br2)]
 Deg. of freedom    18
 Full point group                 C1      NOp   1
 Largest Abelian subgroup         C1      NOp   1
 Largest concise Abelian subgroup C1      NOp   1
                         Standard orientation:                         
 ---------------------------------------------------------------------
 Center     Atomic      Atomic             Coordinates (Angstroms)
 Number     Number       Type             X           Y           Z
 ---------------------------------------------------------------------
      1          6           0        1.056985    1.729831   -0.669097
      2          6           0        1.097012    1.614495    0.710461
      3          1           0        1.960302    1.907438   -1.244826
      4          1           0        2.027126    1.739803    1.256053
      5          1           0        0.109697    1.673134   -1.194490
      6          1           0        0.176972    1.530135    1.278330
      7         35           0        1.263006   -0.724744   -0.011706
      8         35           0       -1.754380   -0.044298    0.001899
 ---------------------------------------------------------------------
 Rotational constants (GHZ):           3.7025452           1.1952003           0.9644934
 Standard basis: 6-31+G(d) (6D, 7F)
 There are   114 symmetry adapted cartesian basis functions of A   symmetry.
 There are   114 symmetry adapted basis functions of A   symmetry.
   114 basis functions,   254 primitive gaussians,   114 cartesian basis functions
    43 alpha electrons       43 beta electrons
       nuclear repulsion energy       444.1202274819 Hartrees.
 NAtoms=    8 NActive=    8 NUniq=    8 SFac= 1.00D+00 NAtFMM=   60 NAOKFM=F Big=F
 Integral buffers will be    131072 words long.
 Raffenetti 2 integral format.
 Two-electron integral symmetry is turned on.
 One-electron integrals computed using PRISM.
 NBasis=   114 RedAO= T EigKep=  1.80D-04  NBF=   114
 NBsUse=   114 1.00D-06 EigRej= -1.00D+00 NBFU=   114
 Initial guess from the checkpoint file:  "/localscratch/lustra.25374842.0/Gau-200246.chk"
 B after Tr=     0.000000   -0.000000   -0.000000
         Rot=    0.999787    0.020351    0.003092    0.001637 Ang=   2.37 deg.
 ExpMin= 3.50D-02 ExpMax= 5.74D+05 ExpMxC= 5.74D+03 IAcc=3 IRadAn=         5 AccDes= 0.00D+00
 Harris functional with IExCor=  402 and IRadAn=       5 diagonalized for initial guess.
 HarFok:  IExCor=  402 AccDes= 0.00D+00 IRadAn=         5 IDoV= 1 UseB2=F ITyADJ=14
 ICtDFT=  3500011 ScaDFX=  1.000000  1.000000  1.000000  1.000000
 FoFCou: FMM=F IPFlag=           0 FMFlag=      100000 FMFlg1=           0
         NFxFlg=           0 DoJE=T BraDBF=F KetDBF=T FulRan=T
         wScrn=  0.000000 ICntrl=       500 IOpCl=  0 I1Cent=   200000004 NGrid=           0
         NMat0=    1 NMatS0=      1 NMatT0=    0 NMatD0=    1 NMtDS0=    0 NMtDT0=    0
 Petite list used in FoFCou.
 Keep R1 ints in memory in canonical form, NReq=22528208.
 Requested convergence on RMS density matrix=1.00D-08 within 128 cycles.
 Requested convergence on MAX density matrix=1.00D-06.
 Requested convergence on             energy=1.00D-06.
 No special actions if energy rises.
 SCF Done:  E(RB3LYP) =  -5221.95132562     A.U. after   17 cycles
            NFock= 17  Conv=0.87D-08     -V/T= 2.0063
 Calling FoFJK, ICntrl=      2127 FMM=F ISym2X=0 I1Cent= 0 IOpClX= 0 NMat=1 NMatS=1 NMatT=0.
 ***** Axes restored to original set *****
 -------------------------------------------------------------------
 Center     Atomic                   Forces (Hartrees/Bohr)
 Number     Number              X              Y              Z
 -------------------------------------------------------------------
      1        6          -0.000032436    0.000107499    0.000364469
      2        6          -0.000020535    0.000223524   -0.000451518
      3        1           0.000005162   -0.000094043    0.000006392
      4        1           0.000000871   -0.000129571   -0.000004698
      5        1          -0.000003301   -0.000023279    0.000028231
      6        1          -0.000015899   -0.000156373   -0.000006122
      7       35           0.000064810    0.000033204    0.000070731
      8       35           0.000001328    0.000039039   -0.000007485
 -------------------------------------------------------------------
 Cartesian Forces:  Max     0.000451518 RMS     0.000138955

 GradGradGradGradGradGradGradGradGradGradGradGradGradGradGradGradGradGrad
 Berny optimization.
 FormGI is forming the generalized inverse of G from B-inverse, IUseBI=4.
 Internal  Forces:  Max     0.000381862 RMS     0.000081569
 Search for a saddle point.
 Step number   6 out of a maximum of   44
 All quantities printed in internal units (Hartrees-Bohrs-Radians)
 Swapping is turned off.
 Update second derivatives using D2CorX and points    1    2    3    4    5
                                                      6
 ITU=  0  0  0  0  0  0
     Eigenvalues ---   -0.03811   0.00150   0.00397   0.00605   0.01519
     Eigenvalues ---    0.01541   0.02742   0.03004   0.04699   0.09737
     Eigenvalues ---    0.10411   0.12744   0.16661   0.33284   0.36060
     Eigenvalues ---    0.36887   0.36931   0.46314
 Eigenvectors required to have negative eigenvalues:
                          R4        R7        D6        D9        A12
   1                   -0.61281  -0.60430   0.17450  -0.16843   0.16171
                          A11       A10       A5        D7        D10
   1                    0.15921   0.15783   0.14308   0.12241  -0.11460
 RFO step:  Lambda0=1.270124072D-08 Lambda=-2.66732747D-06.
 Linear search not attempted -- option 19 set.
 Iteration  1 RMS(Cart)=  0.00377179 RMS(Int)=  0.00000831
 Iteration  2 RMS(Cart)=  0.00000566 RMS(Int)=  0.00000275
 Iteration  3 RMS(Cart)=  0.00000000 RMS(Int)=  0.00000275
 Variable       Old X    -DE/DX   Delta X   Delta X   Delta X     New X
                                 (Linear)    (Quad)   (Total)
    R1        2.61718  -0.00038   0.00000  -0.00047  -0.00047   2.61671
    R2        2.05189   0.00000   0.00000   0.00002   0.00002   2.05191
    R3        2.04981   0.00000   0.00000   0.00000   0.00000   2.04981
    R4        4.81771   0.00004   0.00000   0.00985   0.00985   4.82756
    R5        2.05145  -0.00000   0.00000  -0.00003  -0.00003   2.05142
    R6        2.04934   0.00001   0.00000  -0.00003  -0.00003   2.04931
    R7        4.63700  -0.00009   0.00000  -0.01012  -0.01012   4.62689
    R8        5.29653  -0.00001   0.00000   0.00037   0.00037   5.29690
    R9        5.29064  -0.00002   0.00000  -0.00062  -0.00063   5.29001
    A1        2.11501  -0.00001   0.00000   0.00005   0.00005   2.11505
    A2        2.09828   0.00001   0.00000  -0.00018  -0.00019   2.09809
    A3        2.06946   0.00000   0.00000   0.00029   0.00029   2.06975
    A4        1.79977  -0.00008   0.00000   0.00058   0.00058   1.80035
    A5        1.71646   0.00006   0.00000   0.00134   0.00134   1.71780
    A6        2.11271   0.00001   0.00000   0.00002   0.00002   2.11272
    A7        2.09851   0.00000   0.00000   0.00009   0.00009   2.09860
    A8        2.06314  -0.00000   0.00000  -0.00044  -0.00044   2.06270
    A9        1.77215  -0.00014   0.00000  -0.00325  -0.00325   1.76890
   A10        1.70858  -0.00002   0.00000  -0.00182  -0.00183   1.70674
   A11        1.98897   0.00004   0.00000   0.00071   0.00071   1.98968
   A12        1.97171   0.00005   0.00000  -0.00042  -0.00042   1.97129
   A13        0.91628  -0.00007   0.00000  -0.00007  -0.00007   0.91621
    D1        0.04484  -0.00001   0.00000   0.00407   0.00407   0.04891
    D2        3.04149   0.00007   0.00000   0.00132   0.00131   3.04280
    D3       -3.06460  -0.00005   0.00000  -0.00199  -0.00199  -3.06659
    D4       -0.06795   0.00002   0.00000  -0.00475  -0.00475  -0.07269
    D5       -0.57786   0.00000   0.00000   0.00353   0.00353  -0.57433
    D6        2.59505  -0.00004   0.00000  -0.00237  -0.00237   2.59268
    D7        0.67616   0.00001   0.00000  -0.00402  -0.00402   0.67215
    D8        0.66944  -0.00002   0.00000   0.00298   0.00298   0.67242
    D9       -2.61303   0.00005   0.00000   0.00033   0.00033  -2.61270
   D10       -0.73388  -0.00013   0.00000  -0.00474  -0.00474  -0.73862
   D11        0.58243  -0.00002   0.00000  -0.00132  -0.00132   0.58111
   D12       -0.61205   0.00003   0.00000  -0.00072  -0.00072  -0.61276
         Item               Value     Threshold  Converged?
 Maximum Force            0.000382     0.000450     YES
 RMS     Force            0.000082     0.000300     YES
 Maximum Displacement     0.016065     0.001800     NO 
 RMS     Displacement     0.003773     0.001200     NO 
 Predicted change in Energy=-1.327264D-06
 GradGradGradGradGradGradGradGradGradGradGradGradGradGradGradGradGradGrad

                          Input orientation:                          
 ---------------------------------------------------------------------
 Center     Atomic      Atomic             Coordinates (Angstroms)
 Number     Number       Type             X           Y           Z
 ---------------------------------------------------------------------
      1          6           0        1.346675    1.489237   -0.702942
      2          6           0        1.347645    1.429437    0.680467
      3          1           0        2.274621    1.480248   -1.266727
      4          1           0        2.277978    1.417384    1.239740
[...]
 Thermal correction to Gibbs Free Energy=         0.020247
 Sum of electronic and zero-point Energies=          -5221.898119
 Sum of electronic and thermal Energies=             -5221.892135
 Sum of electronic and thermal Enthalpies=           -5221.891191
 Sum of electronic and thermal Free Energies=        -5221.931084
 
                     E (Thermal)             CV                S
                      KCal/Mol        Cal/Mol-Kelvin    Cal/Mol-Kelvin
 Total                   37.146             17.101             83.963
 Electronic               0.000              0.000              0.000
 Translational            0.889              2.981             41.566
 Rotational               0.889              2.981             28.712
 Vibrational             35.369             11.139             13.685
 Vibration     1          0.595              1.978              4.850
 Vibration     2          0.618              1.903              2.676
 Vibration     3          0.622              1.891              2.549
 Vibration     4          0.627              1.876              2.402
 Vibration     5          0.865              1.229              0.635
                       Q            Log10(Q)             Ln(Q)
 Total Bot       0.486621D-09         -9.312809        -21.443536
 Total V=0       0.145464D+16         15.162757         34.913538
 Vib (Bot)       0.116273D-22        -22.934523        -52.808691
 Vib (Bot)    1  0.420279D+01          0.623538          1.435749
 Vib (Bot)    2  0.135487D+01          0.131897          0.303703
 Vib (Bot)    3  0.126320D+01          0.101471          0.233645
 Vib (Bot)    4  0.116341D+01          0.065733          0.151355
 Vib (Bot)    5  0.319755D+00         -0.495182         -1.140200
 Vib (V=0)       0.347571D+02          1.541043          3.548383
 Vib (V=0)    1  0.473243D+01          0.675084          1.554438
 Vib (V=0)    2  0.194418D+01          0.288737          0.664842
 Vib (V=0)    3  0.185855D+01          0.269175          0.619798
 Vib (V=0)    4  0.176630D+01          0.247065          0.568888
 Vib (V=0)    5  0.109350D+01          0.038819          0.089384
 Electronic      0.100000D+01          0.000000          0.000000
 Translational   0.996003D+08          7.998261         18.416676
 Rotational      0.420197D+06          5.623453         12.948479
 ***** Axes restored to original set *****
 -------------------------------------------------------------------
 Center     Atomic                   Forces (Hartrees/Bohr)
 Number     Number              X              Y              Z
 -------------------------------------------------------------------
      1        6          -0.000000428   -0.000000590    0.000010689
      2        6          -0.000002425    0.000004682   -0.000011143
      3        1          -0.000000835   -0.000000466   -0.000000769
      4        1           0.000001060   -0.000004086   -0.000001429
      5        1          -0.000001668   -0.000001692    0.000000538
      6        1           0.000002034    0.000000764   -0.000001619
      7       35           0.000002365    0.000000793    0.000002161
      8       35          -0.000000103    0.000000596    0.000001571
 -------------------------------------------------------------------
 Cartesian Forces:  Max     0.000011143 RMS     0.000003624
 FormGI is forming the generalized inverse of G from B-inverse, IUseBI=4.

 GradGradGradGradGradGradGradGradGradGradGradGradGradGradGradGradGradGrad
 Berny optimization.
 Internal  Forces:  Max     0.000011066 RMS     0.000002335
 Search for a saddle point.
 Step number   1 out of a maximum of    2
 All quantities printed in internal units (Hartrees-Bohrs-Radians)
 Swapping is turned off.
 Second derivative matrix not updated -- analytic derivatives used.
 ITU=  0
     Eigenvalues ---   -0.03762   0.00081   0.00382   0.00563   0.01349
     Eigenvalues ---    0.01752   0.02493   0.03343   0.04669   0.09710
     Eigenvalues ---    0.10391   0.12771   0.16563   0.33304   0.36054
     Eigenvalues ---    0.36871   0.36924   0.45612
 Eigenvectors required to have negative eigenvalues:
                          R4        R7        D9        A10       A11
   1                   -0.61438  -0.59582  -0.18734   0.16827   0.16181
                          A12       D6        D7        A5        D10
   1                    0.16173   0.16128   0.13297   0.13126  -0.10778
 Angle between quadratic step and forces=  81.27 degrees.
 Linear search not attempted -- option 19 set.
 Iteration  1 RMS(Cart)=  0.00019819 RMS(Int)=  0.00000002
 Iteration  2 RMS(Cart)=  0.00000002 RMS(Int)=  0.00000001
 Variable       Old X    -DE/DX   Delta X   Delta X   Delta X     New X
                                 (Linear)    (Quad)   (Total)
    R1        2.61853  -0.00001   0.00000  -0.00000  -0.00000   2.61853
    R2        2.05204  -0.00000   0.00000   0.00000   0.00000   2.05204
    R3        2.04991   0.00000   0.00000   0.00000   0.00000   2.04992
    R4        4.88424   0.00000   0.00000   0.00051   0.00051   4.88475
    R5        2.05127   0.00000   0.00000  -0.00000  -0.00000   2.05127
    R6        2.04917  -0.00000   0.00000  -0.00001  -0.00001   2.04917
    R7        4.56952  -0.00000   0.00000  -0.00054  -0.00054   4.56899
    R8        5.30408  -0.00000   0.00000  -0.00003  -0.00003   5.30404
    R9        5.29511   0.00000   0.00000   0.00017   0.00017   5.29528
    A1        2.11494   0.00000   0.00000   0.00000   0.00000   2.11494
    A2        2.09718  -0.00000   0.00000  -0.00002  -0.00002   2.09716
    A3        2.07107  -0.00000   0.00000   0.00001   0.00001   2.07108
    A4        1.81229  -0.00000   0.00000   0.00011   0.00011   1.81240
    A5        1.72152   0.00000   0.00000   0.00004   0.00004   1.72156
    A6        2.11086  -0.00000   0.00000  -0.00001  -0.00001   2.11084
    A7        2.09762  -0.00000   0.00000  -0.00001  -0.00001   2.09761
    A8        2.05970   0.00000   0.00000  -0.00002  -0.00002   2.05968
    A9        1.76331  -0.00000   0.00000  -0.00013  -0.00013   1.76318
   A10        1.70478   0.00000   0.00000   0.00001   0.00001   1.70479
   A11        1.99325   0.00000   0.00000   0.00006   0.00006   1.99332
   A12        1.96354   0.00000   0.00000  -0.00012  -0.00012   1.96342
   A13        0.91530  -0.00000   0.00000  -0.00002  -0.00002   0.91528
    D1        0.07700  -0.00000   0.00000   0.00017   0.00017   0.07716
    D2        3.02967  -0.00000   0.00000  -0.00016  -0.00016   3.02951
    D3       -3.06756  -0.00000   0.00000  -0.00009  -0.00009  -3.06765
    D4       -0.11488  -0.00000   0.00000  -0.00041  -0.00041  -0.11530
    D5       -0.54956  -0.00000   0.00000   0.00019   0.00019  -0.54937
    D6        2.58914   0.00000   0.00000  -0.00006  -0.00006   2.58908
    D7        0.65146   0.00000   0.00000  -0.00022  -0.00022   0.65124
    D8        0.70401   0.00000   0.00000   0.00031   0.00031   0.70432
    D9       -2.62105   0.00000   0.00000  -0.00000  -0.00000  -2.62105
   D10       -0.75562  -0.00000   0.00000  -0.00016  -0.00016  -0.75578
   D11        0.57498  -0.00000   0.00000  -0.00002  -0.00002   0.57495
   D12       -0.62480  -0.00000   0.00000  -0.00013  -0.00013  -0.62493
         Item               Value     Threshold  Converged?
 Maximum Force            0.000011     0.000450     YES
 RMS     Force            0.000002     0.000300     YES
 Maximum Displacement     0.000827     0.001800     YES
 RMS     Displacement     0.000198     0.001200     YES
 Predicted change in Energy=-1.081585D-09
 Optimization completed.
    -- Stationary point found.
                           ----------------------------
                           !   Optimized Parameters   !
                           ! (Angstroms and Degrees)  !
 --------------------------                            --------------------------
 ! Name  Definition              Value          Derivative Info.                !
 --------------------------------------------------------------------------------
 ! R1    R(1,2)                  1.3857         -DE/DX =    0.0                 !
 ! R2    R(1,3)                  1.0859         -DE/DX =    0.0                 !
 ! R3    R(1,5)                  1.0848         -DE/DX =    0.0                 !
 ! R4    R(1,7)                  2.5846         -DE/DX =    0.0                 !
 ! R5    R(2,4)                  1.0855         -DE/DX =    0.0                 !
 ! R6    R(2,6)                  1.0844         -DE/DX =    0.0                 !
 ! R7    R(2,7)                  2.4181         -DE/DX =    0.0                 !
 ! R8    R(5,8)                  2.8068         -DE/DX =    0.0                 !
 ! R9    R(6,8)                  2.8021         -DE/DX =    0.0                 !
 ! A1    A(2,1,3)              121.1771         -DE/DX =    0.0                 !
 ! A2    A(2,1,5)              120.1593         -DE/DX =    0.0                 !
 ! A3    A(3,1,5)              118.6634         -DE/DX =    0.0                 !
 ! A4    A(3,1,7)              103.8368         -DE/DX =    0.0                 !
 ! A5    A(5,1,7)               98.6359         -DE/DX =    0.0                 !
 ! A6    A(1,2,4)              120.9431         -DE/DX =    0.0                 !
 ! A7    A(1,2,6)              120.185          -DE/DX =    0.0                 !
 ! A8    A(4,2,6)              118.0124         -DE/DX =    0.0                 !
 ! A9    A(4,2,7)              101.0305         -DE/DX =    0.0                 !
 ! A10   A(6,2,7)               97.6767         -DE/DX =    0.0                 !
 ! A11   A(1,5,8)              114.2049         -DE/DX =    0.0                 !
 ! A12   A(2,6,8)              112.5026         -DE/DX =    0.0                 !
 ! A13   A(5,8,6)               52.4427         -DE/DX =    0.0                 !
 ! D1    D(3,1,2,4)              4.4116         -DE/DX =    0.0                 !
 ! D2    D(3,1,2,6)            173.5873         -DE/DX =    0.0                 !
 ! D3    D(5,1,2,4)           -175.758          -DE/DX =    0.0                 !
 ! D4    D(5,1,2,6)             -6.5823         -DE/DX =    0.0                 !
 ! D5    D(2,1,5,8)            -31.4876         -DE/DX =    0.0                 !
 ! D6    D(3,1,5,8)            148.3471         -DE/DX =    0.0                 !
 ! D7    D(7,1,5,8)             37.3262         -DE/DX =    0.0                 !
 ! D8    D(1,2,6,8)             40.337          -DE/DX =    0.0                 !
 ! D9    D(4,2,6,8)           -150.1751         -DE/DX =    0.0                 !
 ! D10   D(7,2,6,8)            -43.2939         -DE/DX =    0.0                 !
 ! D11   D(1,5,8,6)             32.9437         -DE/DX =    0.0                 !
 ! D12   D(2,6,8,5)            -35.7982         -DE/DX =    0.0                 !
 --------------------------------------------------------------------------------
 GradGradGradGradGradGradGradGradGradGradGradGradGradGradGradGradGradGrad


 ----------------------------------------------------------------------

 Electric dipole moment (input orientation):
 (Debye = 10**-18 statcoulomb cm , SI units = C m)
                  (au)            (Debye)         (10**-30 SI)
   Tot        0.232716D+01      0.591506D+01      0.197305D+02
   x          0.212699D+01      0.540627D+01      0.180334D+02
   y          0.944241D+00      0.240002D+01      0.800561D+01
   z          0.431389D-02      0.109648D-01      0.365747D-01

 Dipole polarizability, Alpha (input orientation).
 (esu units = cm**3 , SI units = C**2 m**2 J**-1)
 Alpha(0;0):
               (au)            (10**-24 esu)      (10**-40 SI)
   iso        0.949312D+02      0.140674D+02      0.156520D+02
   aniso      0.788831D+02      0.116893D+02      0.130061D+02
   xx         0.145434D+03      0.215511D+02      0.239789D+02
   yx         0.554544D+01      0.821750D+00      0.914320D+00
   yy         0.805810D+02      0.119409D+02      0.132860D+02
   zx         0.176301D+00      0.261252D-01      0.290682D-01
   zy        -0.341179D+01     -0.505575D+00     -0.562528D+00
   zz         0.587784D+02      0.871006D+01      0.969125D+01

 ----------------------------------------------------------------------

 Dipole orientation:
     6          0.59458532          1.97783765          3.47718232
     6         -1.72698519          0.76833850          3.41282839
     1          1.86535662          1.75363753          5.07271806
     1         -2.39069031         -0.32646410          5.01551897
     1          1.17782026          3.17110964          1.91574629
     1         -3.05391084          1.16506327          1.90253475
    35          0.79159043         -2.34417400          1.21065077
    35         -0.68160522          1.63450434         -2.80808950

 Electric dipole moment (dipole orientation):
 (Debye = 10**-18 statcoulomb cm , SI units = C m)
                  (au)            (Debye)         (10**-30 SI)
   Tot        0.232716D+01      0.591506D+01      0.197305D+02
   x          0.000000D+00      0.000000D+00      0.000000D+00
   y          0.000000D+00      0.000000D+00      0.000000D+00
   z          0.232716D+01      0.591506D+01      0.197305D+02

 Dipole polarizability, Alpha (dipole orientation).
 (esu units = cm**3 , SI units = C**2 m**2 J**-1)
 Alpha(0;0):
               (au)            (10**-24 esu)      (10**-40 SI)
   iso        0.949312D+02      0.140674D+02      0.156520D+02
   aniso      0.788831D+02      0.116893D+02      0.130061D+02
   xx         0.611145D+02      0.905623D+01      0.100764D+02
   yx        -0.840360D+01     -0.124528D+01     -0.138557D+01
   yy         0.848136D+02      0.125681D+02      0.139839D+02
   zx         0.950538D+01      0.140855D+01      0.156723D+01
   zy        -0.180312D+02     -0.267195D+01     -0.297294D+01
   zz         0.138866D+03      0.205778D+02      0.228959D+02

 ----------------------------------------------------------------------
 Unable to Open any file for archive entry.
 1\1\GINC-CDR1976\Freq\RB3LYP\6-31+G(d)\C2H4Br2\LUSTRA\26-Jan-2022\0\\#
 N Geom=AllCheck Guess=TCheck SCRF=Check GenChk RB3LYP/6-31+G(d) Freq\\
 alkene_transition_state\\0,1\C,1.3466386291,1.5047644673,-0.7088317816
 \C,1.3482744788,1.4108329026,0.6736482864\H,2.274000497,1.4992808155,-
 1.2737483206\H,2.2795154205,1.4008140671,1.2312950716\H,0.4089861614,1
 .5829487723,-1.2486605474\H,0.4234083959,1.5219123728,1.2287648439\Br,
 1.114331423,-0.9317547449,0.1216505787\Br,-1.7382650058,0.2533913472,-
 0.0240381309\\Version=ES64L-G16RevC.01\State=1-A\HF=-5221.9513308\RMSD
 =1.730e-09\RMSF=3.624e-06\ZeroPoint=0.0532115\Thermal=0.059196\ETot=-5
 221.8921348\HTot=-5221.8911906\GTot=-5221.9310842\Dipole=2.12699,0.944
 2412,0.0043139\DipoleDeriv=0.0023093,-0.0103396,-0.0448767,-0.9047818,
 -0.1093984,-0.0358366,-0.878192,-0.3666843,0.0177384,-0.000339,-0.0131
 562,0.0494197,-0.9647178,-0.0234991,0.012309,1.0060049,0.3820753,0.025
 4111,0.0694209,0.0045725,0.040837,0.0496688,0.1291176,0.0225969,0.0221
 808,0.0115005,0.0771726,0.0690342,0.0016027,-0.0413608,0.036578,0.0910
 988,-0.0325604,-0.030854,-0.0115318,0.0764024,-0.0246796,-0.0156795,-0
 .0012429,0.0378519,0.1135933,-0.007453,0.0335308,-0.0071029,0.0859335,
 -0.0141858,-0.0140326,0.0032059,0.0443055,0.0964957,-0.0036718,-0.0418
 788,0.0036039,0.0886292,0.7236472,0.207785,-0.0143344,1.4041992,-0.037
 344,0.0562937,-0.0801885,-0.0050222,-0.0121226,-0.8252071,-0.1607524,0
 .0083522,0.2968962,-0.2600638,-0.0116778,-0.0306032,-0.0068384,-0.3591
 646\Polar=145.4343143,5.5454436,80.5810224,0.1763014,-3.4117888,58.778
 3816\Quadrupole=-2.0621182,1.8908226,0.1712956,3.2061884,-0.1813104,-0
 .2571124\PG=C01 [X(C2H4Br2)]\NImag=1\\0.67426894,-0.02873289,0.0904628
 7,-0.00138480,-0.04854355,0.70819994,-0.11282783,0.00600192,-0.0031622
 9,0.67374301,0.00589673,-0.02976044,-0.01444648,-0.03941937,0.06664756
 ,0.00108048,0.04482504,-0.41859180,0.00149266,0.01854703,0.71566658,-0
 .27910968,0.00413838,0.13016495,0.00613910,0.00109233,-0.00382376,0.28
 371044,0.00549451,-0.03679877,-0.00043188,-0.00033608,0.00595314,0.000
 49644,-0.00392812,0.02346302,0.12412453,0.00273257,-0.13289039,0.02951
 114,-0.00098543,-0.01416943,-0.13948644,-0.00142724,0.13822981,0.00616
 963,0.00115818,0.00372304,-0.28120934,0.00541259,-0.12948976,0.0008567
 5,-0.00041685,-0.00021441,0.28606847,0.00512012,0.00429436,0.00483598,
 0.00553088,-0.03453122,-0.00099153,-0.00050278,-0.00380530,-0.00060653
 ,-0.00543149,0.02967482,-0.02968579,0.00069208,-0.01380071,-0.12300105
 ,-0.00034674,-0.13144840,0.00020577,0.00022946,0.00130214,0.13819369,-
 0.00185711,0.13635699,-0.28290500,0.01894964,-0.13257276,0.00624410,-0
 .00242877,0.00350180,-0.01147186,0.00226898,-0.01132357,0.00074313,-0.
 00042489,0.00183535,0.28800455,0.01845892,-0.03784651,0.00864346,-0.00
 063618,0.00314780,0.00120447,0.00008147,0.00763195,-0.00062688,0.00013
 650,0.00641970,0.00004722,-0.02128540,0.02671608,-0.12324476,0.0131758
 7,-0.12827108,-0.02908207,0.00310823,-0.01436452,0.01409183,-0.0018769
 6,0.01157923,0.00139557,0.00125007,-0.00440990,0.13762049,-0.01320692,
 0.13427562,0.00595900,-0.00279058,-0.00309827,-0.27698471,0.02732315,0
 .13518605,0.00076813,0.00015575,-0.00183635,-0.01194677,0.00273694,0.0
 1180188,-0.00016790,0.00013629,-0.00009140,0.28220778,-0.00555520,0.00
 282884,0.00382700,0.02840169,-0.03621493,-0.01581740,0.00035170,0.0064
 8432,0.00147946,-0.00006900,0.00560856,0.00103398,0.00035524,-0.003459
 16,-0.00057344,-0.02876216,0.03418429,0.02834574,-0.00407376,-0.014473
 42,0.12549877,-0.01686755,-0.13247920,-0.00134743,0.00008592,-0.004363
 49,-0.01379072,0.00292235,0.01175015,0.00006746,0.00044253,0.00120432,
 -0.13985125,0.01614452,0.13854077,-0.00649662,0.01270583,0.01423571,-0
 .00959992,0.01625265,-0.01680154,-0.00048164,-0.00351892,-0.00032642,-
 0.00015693,-0.00748238,0.00024117,0.00248968,0.00299196,-0.00085030,0.
 00290748,0.00492546,0.00131914,0.01200268,0.00414626,0.00084980,0.0398
 8861,0.00498000,0.01893314,-0.04071236,-0.00024759,-0.00196913,-0.0002
 1831,0.00022229,-0.00659878,-0.00014889,0.00211837,-0.00295692,-0.0010
 2662,0.00109101,-0.00961619,0.00037303,-0.03139234,0.01850192,-0.00187
 568,-0.00930109,0.00137865,0.00093608,0.01258637,-0.00358644,-0.000486
 01,0.00201412,-0.00015152,0.00082596,-0.00488770,-0.00014428,0.0004399
 2,0.00454869,-0.00006725,-0.00151560,-0.00681848,-0.00029189,0.0027203
 8,0.00032254,0.00361521,-0.00505844,-0.01143047,-0.00790559,-0.0055044
 2,-0.01412930,0.00885407,-0.00041124,0.00028073,-0.00044848,-0.0005249
 4,0.00045361,0.00040897,-0.00293669,0.00011643,0.00016064,-0.00274301,
 0.00035226,-0.00024170,-0.00066474,0.01908200,-0.00104504,0.01784348,-
 0.00482845,0.00596986,0.00622686,-0.00452284,0.00582494,-0.00755169,-0
 .00098539,-0.00095923,-0.00034765,-0.00101223,-0.00106213,0.00034999,0
 .00044684,0.00034707,-0.00085023,0.00010961,0.00018427,0.00097297,0.00
 551772,-0.01714384,0.00153555,0.00527474,0.00683906,0.00264028,0.00049
 286,-0.00155119,-0.00219325,-0.00159543,-0.00102679,0.00068109,0.00091
 015,0.00046365,-0.00064336,-0.00066554,0.00039401,0.00043130,-0.001052
 58,0.00005358,-0.00059506,0.00072436,0.00011277,-0.00053814,0.00152199
 ,-0.00075248,0.00021714,-0.00033581,0.00230645\\0.00000043,0.00000059,
 -0.00001069,0.00000243,-0.00000468,0.00001114,0.00000083,0.00000047,0.
 00000077,-0.00000106,0.00000409,0.00000143,0.00000167,0.00000169,-0.00
 000054,-0.00000203,-0.00000076,0.00000162,-0.00000237,-0.00000079,-0.0
 0000216,0.00000010,-0.00000060,-0.00000157\\\@
 The archive entry for this job was punched.


 WHERE THERE IS MUCH DESIRE TO LEARN, THERE OF NECESSITY WILL BE
 MUCH ARGUING, MUCH WRITING, MANY OPINIONS; FOR OPINION IN GOOD MEN
 IS BUT KNOWLEDGE IN THE MAKING. -- JOHN MILTON.
 Job cpu time:       0 days  0 hours  1 minutes 21.4 seconds.
 Elapsed time:       0 days  0 hours  1 minutes 21.3 seconds.
 File lengths (MBytes):  RWF=     21 Int=      0 D2E=      0 Chk=      2 Scr=      1
 Normal termination of Gaussian 16 at Wed Jan 26 09:42:43 2022.
