 Entering Gaussian System, Link 0=g16
 Initial command:
 /opt/software/gaussian/g16.c01/l1.exe "/localscratch/lustra.25343108.0/Gau-185593.inp" -scrdir="/localscratch/lustra.25343108.0/"
 Entering Link 1 = /opt/software/gaussian/g16.c01/l1.exe PID=    185594.
  
 Copyright (c) 1988-2019, Gaussian, Inc.  All Rights Reserved.
  
 This is part of the Gaussian(R) 16 program.  It is based on
 the Gaussian(R) 09 system (copyright 2009, Gaussian, Inc.),
 the Gaussian(R) 03 system (copyright 2003, Gaussian, Inc.),
 the Gaussian(R) 98 system (copyright 1998, Gaussian, Inc.),
 the Gaussian(R) 94 system (copyright 1995, Gaussian, Inc.),
 the Gaussian 92(TM) system (copyright 1992, Gaussian, Inc.),
 the Gaussian 90(TM) system (copyright 1990, Gaussian, Inc.),
 the Gaussian 88(TM) system (copyright 1988, Gaussian, Inc.),
 the Gaussian 86(TM) system (copyright 1986, Carnegie Mellon
 University), and the Gaussian 82(TM) system (copyright 1983,
 Carnegie Mellon University). Gaussian is a federally registered
 trademark of Gaussian, Inc.
  
 This software contains proprietary and confidential information,
 including trade secrets, belonging to Gaussian, Inc.
  
 This software is provided under written license and may be
 used, copied, transmitted, or stored only in accord with that
 written license.
  
 The following legend is applicable only to US Government
 contracts under FAR:
  
                    RESTRICTED RIGHTS LEGEND
  
 Use, reproduction and disclosure by the US Government is
 subject to restrictions as set forth in subparagraphs (a)
 and (c) of the Commercial Computer Software - Restricted
 Rights clause in FAR 52.227-19.
  
 Gaussian, Inc.
 340 Quinnipiac St., Bldg. 40, Wallingford CT 06492
  
  
 ---------------------------------------------------------------
 Warning -- This program may not be used in any manner that
 competes with the business of Gaussian, Inc. or will provide
 assistance to any competitor of Gaussian, Inc.  The licensee
 of this program is prohibited from giving any competitor of
 Gaussian, Inc. access to this program.  By using this program,
 the user acknowledges that Gaussian, Inc. is engaged in the
 business of creating and licensing software in the field of
 computational chemistry and represents and warrants to the
 licensee that it is not a competitor of Gaussian, Inc. and that
 it will not use this program in any manner prohibited above.
 ---------------------------------------------------------------
  

 Cite this work as:
 Gaussian 16, Revision C.01,
 M. J. Frisch, G. W. Trucks, H. B. Schlegel, G. E. Scuseria, 
 M. A. Robb, J. R. Cheeseman, G. Scalmani, V. Barone, 
 G. A. Petersson, H. Nakatsuji, X. Li, M. Caricato, A. V. Marenich, 
 J. Bloino, B. G. Janesko, R. Gomperts, B. Mennucci, H. P. Hratchian, 
 J. V. Ortiz, A. F. Izmaylov, J. L. Sonnenberg, D. Williams-Young, 
 F. Ding, F. Lipparini, F. Egidi, J. Goings, B. Peng, A. Petrone, 
 T. Henderson, D. Ranasinghe, V. G. Zakrzewski, J. Gao, N. Rega, 
 G. Zheng, W. Liang, M. Hada, M. Ehara, K. Toyota, R. Fukuda, 
 J. Hasegawa, M. Ishida, T. Nakajima, Y. Honda, O. Kitao, H. Nakai, 
 T. Vreven, K. Throssell, J. A. Montgomery, Jr., J. E. Peralta, 
 F. Ogliaro, M. J. Bearpark, J. J. Heyd, E. N. Brothers, K. N. Kudin, 
 V. N. Staroverov, T. A. Keith, R. Kobayashi, J. Normand, 
 K. Raghavachari, A. P. Rendell, J. C. Burant, S. S. Iyengar, 
 J. Tomasi, M. Cossi, J. M. Millam, M. Klene, C. Adamo, R. Cammi, 
 J. W. Ochterski, R. L. Martin, K. Morokuma, O. Farkas, 
 J. B. Foresman, and D. J. Fox, Gaussian, Inc., Wallingford CT, 2019.
 
 ******************************************
 Gaussian 16:  ES64L-G16RevC.01  3-Jul-2019
                25-Jan-2022 
 ******************************************
 %NProcShared=2
 Will use up to    2 processors via shared memory.
 %Chk=checkpoint.chk
 ---------------------
 #n B3LYP/6-31G(d) Opt
 ---------------------
 1/18=20,19=15,26=3,38=1/1,3;
 2/9=110,12=2,17=6,18=5,40=1/2;
 3/5=1,6=6,7=1,11=2,25=1,30=1,71=1,74=-5/1,2,3;
 4//1;
 5/5=2,38=5/2;
 6/7=2,8=2,9=2,10=2,28=1/1;
 7//1,2,3,16;
 1/18=20,19=15,26=3/3(2);
 2/9=110/2;
 99//99;
 2/9=110/2;
 3/5=1,6=6,7=1,11=2,25=1,30=1,71=1,74=-5/1,2,3;
 4/5=5,16=3,69=1/1;
 5/5=2,38=5/2;
 7//1,2,3,16;
 1/18=20,19=15,26=3/3(-5);
 2/9=110/2;
 6/7=2,8=2,9=2,10=2,19=2,28=1/1;
 99/9=1/99;
 -----------------------
 ditbutylteropyrenophane
 -----------------------
 Symbolic Z-matrix:
 Charge =  0 Multiplicity = 1
 C                     1.01478  -5.77376   0.36734 
 C                     0.60218  -4.41267   0.38106 
 C                     0.03696  -6.80652   0.38248 
 C                    -0.78579  -4.08107   0.40987 
 C                    -1.75362  -5.11999   0.42476 
 C                    -1.35272  -6.48223   0.41129 
 C                     0.48563  -8.13957   0.36817 
 C                    -1.24969  -2.73915   0.4245 
 C                     1.59974  -3.42113   0.36537 
 C                    -2.3679   -7.47502   0.42731 
 C                    -3.14098  -4.79236   0.4535 
 C                    -3.55965  -3.44869   0.46724 
 C                    -4.11537  -5.8071    0.46861 
 C                    -4.92641  -3.12912   0.49551 
 C                    -5.47894  -5.48073   0.49685 
 C                    -5.91435  -4.1391    0.51089 
 C                    -3.71705  -7.14013   0.45533 
 H                    -5.19883  -2.08366   0.50514 
 C                    -2.60611  -2.43501   0.45254 
 H                    -6.20442  -6.28411   0.5079 
 C                     9.34438  -7.74218   0.19391 
 C                     8.35485  -8.74733   0.20948 
 C                     8.91255  -6.39694   0.20803 
 C                     6.98932  -8.42927   0.23794 
 C                     7.54722  -6.07137   0.23651 
 C                     6.57174  -7.08584   0.25174 
 C                     5.18437  -6.75827   0.28064 
 C                     4.78348  -5.39615   0.29418 
 C                     4.21649  -7.7973    0.2956 
 C                     3.39378  -5.07186   0.32307 
 C                     2.82853  -7.4657    0.3245 
 C                     2.41595  -6.10462   0.33824 
 H                     8.64435  -9.79038   0.19944 
 H                     9.62383  -5.58376   0.19721 
 C                     6.03681  -9.44333   0.25271 
 C                     7.14782  -4.73822   0.24991 
 C                     5.79862  -4.40348   0.27809 
 C                     4.68037  -9.13934   0.2809 
 C                     2.94511  -3.73881   0.33742 
 C                     1.83099  -8.45725   0.34022 
 H                    -2.16677  -8.53089   0.41904 
 H                    -4.45449  -7.93488   0.46666 
 H                     2.04539  -9.51074   0.33167 
 H                    -0.17735  -8.98588   0.37784 
 H                     6.34087  -10.48401   0.24241 
 H                     4.02819  -9.99372   0.29036 
 H                     7.88452  -3.94279   0.23854 
 H                     5.59743  -3.34762   0.28641 
 H                     3.60808  -2.89249   0.32774 
 H                     1.38535  -2.36763   0.37391 
 H                    -0.59746  -1.88481   0.41509 
 H                    -2.90921  -1.39405   0.46276 
 C                    -7.42757  -3.82946   0.54198 
 C                     10.83627  -8.14214   0.16257 
 C                    -7.73629  -2.31271   0.55423 
 C                    -8.05277  -4.44323   1.8137 
 C                    -8.10249  -4.43298  -0.70906 
 C                     11.79082  -6.92368   0.14857 
 C                     11.12031  -8.9721   -1.10839 
 C                     11.17054  -8.98246   1.41436 
 H                     11.61933  -6.2945   -0.75158 
 H                     12.85203  -7.25467   0.12608 
 H                     11.6554  -6.30193   1.05996 
 H                     10.9765  -8.39485   2.33774 
 H                     12.24034  -9.28477   1.41177 
 H                     10.56488  -9.91106   1.46111 
 H                    -7.30142  -1.82563   1.45377 
 H                    -8.83347  -2.13403   0.57658 
 H                    -7.33712  -1.81827  -0.35777 
 H                    -7.58032  -4.013     2.72323 
 H                    -7.92494  -5.54503   1.8452 
 H                    -9.14402  -4.23525   1.85601 
 H                    -7.66617  -3.9953   -1.63298 
 H                    -9.19453  -4.22483  -0.70665 
 H                    -7.97618  -5.53447  -0.75453 
 H                     10.88977  -8.37696  -2.01845 
 H                     10.51312  -9.90039  -1.13861 
 H                     12.18931  -9.27424  -1.15087 
 

 GradGradGradGradGradGradGradGradGradGradGradGradGradGradGradGradGradGrad
 Berny optimization.
 Initialization pass.
                           ----------------------------
                           !    Initial Parameters    !
                           ! (Angstroms and Degrees)  !
 --------------------------                            --------------------------
 ! Name  Definition              Value          Derivative Info.                !
 --------------------------------------------------------------------------------
 ! R1    R(1,2)                  1.4223         estimate D2E/DX2                !
 ! R2    R(1,3)                  1.4223         estimate D2E/DX2                !
 ! R3    R(1,32)                 1.44           estimate D2E/DX2                !
 ! R4    R(2,4)                  1.4273         estimate D2E/DX2                !
 ! R5    R(2,9)                  1.4066         estimate D2E/DX2                !
 ! R6    R(3,6)                  1.4273         estimate D2E/DX2                !
 ! R7    R(3,7)                  1.4066         estimate D2E/DX2                !
 ! R8    R(4,5)                  1.42           estimate D2E/DX2                !
 ! R9    R(4,8)                  1.4199         estimate D2E/DX2                !
 ! R10   R(5,6)                  1.4201         estimate D2E/DX2                !
 ! R11   R(5,11)                 1.4258         estimate D2E/DX2                !
 ! R12   R(6,10)                 1.42           estimate D2E/DX2                !
 ! R13   R(7,40)                 1.3826         estimate D2E/DX2                !
 ! R14   R(7,44)                 1.0751         estimate D2E/DX2                !
 ! R15   R(8,19)                 1.3904         estimate D2E/DX2                !
 ! R16   R(8,51)                 1.0749         estimate D2E/DX2                !
 ! R17   R(9,39)                 1.3827         estimate D2E/DX2                !
 ! R18   R(9,50)                 1.0751         estimate D2E/DX2                !
 ! R19   R(10,17)                1.3904         estimate D2E/DX2                !
 ! R20   R(10,41)                1.0749         estimate D2E/DX2                !
 ! R21   R(11,12)                1.4075         estimate D2E/DX2                !
 ! R22   R(11,13)                1.4069         estimate D2E/DX2                !
 ! R23   R(12,14)                1.4039         estimate D2E/DX2                !
 ! R24   R(12,19)                1.3918         estimate D2E/DX2                !
 ! R25   R(13,15)                1.4024         estimate D2E/DX2                !
 ! R26   R(13,17)                1.3913         estimate D2E/DX2                !
 ! R27   R(14,16)                1.4129         estimate D2E/DX2                !
 ! R28   R(14,18)                1.0804         estimate D2E/DX2                !
 ! R29   R(15,16)                1.4106         estimate D2E/DX2                !
 ! R30   R(15,20)                1.0825         estimate D2E/DX2                !
 ! R31   R(16,53)                1.5449         estimate D2E/DX2                !
 ! R32   R(17,42)                1.0842         estimate D2E/DX2                !
 ! R33   R(19,52)                1.0842         estimate D2E/DX2                !
 ! R34   R(21,22)                1.4106         estimate D2E/DX2                !
 ! R35   R(21,23)                1.4129         estimate D2E/DX2                !
 ! R36   R(21,54)                1.5449         estimate D2E/DX2                !
 ! R37   R(22,24)                1.4024         estimate D2E/DX2                !
 ! R38   R(22,33)                1.0825         estimate D2E/DX2                !
 ! R39   R(23,25)                1.4039         estimate D2E/DX2                !
 ! R40   R(23,34)                1.0804         estimate D2E/DX2                !
 ! R41   R(24,26)                1.4069         estimate D2E/DX2                !
 ! R42   R(24,35)                1.3913         estimate D2E/DX2                !
 ! R43   R(25,26)                1.4075         estimate D2E/DX2                !
 ! R44   R(25,36)                1.3918         estimate D2E/DX2                !
 ! R45   R(26,27)                1.4258         estimate D2E/DX2                !
 ! R46   R(27,28)                1.42           estimate D2E/DX2                !
 ! R47   R(27,29)                1.4201         estimate D2E/DX2                !
 ! R48   R(28,30)                1.4273         estimate D2E/DX2                !
 ! R49   R(28,37)                1.4199         estimate D2E/DX2                !
 ! R50   R(29,31)                1.4273         estimate D2E/DX2                !
 ! R51   R(29,38)                1.42           estimate D2E/DX2                !
 ! R52   R(30,32)                1.4223         estimate D2E/DX2                !
 ! R53   R(30,39)                1.4066         estimate D2E/DX2                !
 ! R54   R(31,32)                1.4223         estimate D2E/DX2                !
 ! R55   R(31,40)                1.4066         estimate D2E/DX2                !
 ! R56   R(35,38)                1.3904         estimate D2E/DX2                !
 ! R57   R(35,45)                1.0842         estimate D2E/DX2                !
 ! R58   R(36,37)                1.3904         estimate D2E/DX2                !
 ! R59   R(36,47)                1.0842         estimate D2E/DX2                !
 ! R60   R(37,48)                1.0749         estimate D2E/DX2                !
 ! R61   R(38,46)                1.0749         estimate D2E/DX2                !
 ! R62   R(39,49)                1.0751         estimate D2E/DX2                !
 ! R63   R(40,43)                1.0751         estimate D2E/DX2                !
 ! R64   R(53,55)                1.5479         estimate D2E/DX2                !
 ! R65   R(53,56)                1.5443         estimate D2E/DX2                !
 ! R66   R(53,57)                1.5443         estimate D2E/DX2                !
 ! R67   R(54,58)                1.5479         estimate D2E/DX2                !
 ! R68   R(54,59)                1.5443         estimate D2E/DX2                !
 ! R69   R(54,60)                1.5443         estimate D2E/DX2                !
 ! R70   R(55,67)                1.1115         estimate D2E/DX2                !
 ! R71   R(55,68)                1.1119         estimate D2E/DX2                !
 ! R72   R(55,69)                1.1116         estimate D2E/DX2                !
 ! R73   R(56,70)                1.1116         estimate D2E/DX2                !
 ! R74   R(56,71)                1.1096         estimate D2E/DX2                !
 ! R75   R(56,72)                1.1117         estimate D2E/DX2                !
 ! R76   R(57,73)                1.1116         estimate D2E/DX2                !
 ! R77   R(57,74)                1.1117         estimate D2E/DX2                !
 ! R78   R(57,75)                1.1096         estimate D2E/DX2                !
 ! R79   R(58,61)                1.1116         estimate D2E/DX2                !
 ! R80   R(58,62)                1.1119         estimate D2E/DX2                !
 ! R81   R(58,63)                1.1115         estimate D2E/DX2                !
 ! R82   R(59,76)                1.1116         estimate D2E/DX2                !
 ! R83   R(59,77)                1.1096         estimate D2E/DX2                !
 ! R84   R(59,78)                1.1117         estimate D2E/DX2                !
 ! R85   R(60,64)                1.1116         estimate D2E/DX2                !
 ! R86   R(60,65)                1.1117         estimate D2E/DX2                !
 ! R87   R(60,66)                1.1096         estimate D2E/DX2                !
 ! A1    A(2,1,3)              119.691          estimate D2E/DX2                !
 ! A2    A(2,1,32)             120.1547         estimate D2E/DX2                !
 ! A3    A(3,1,32)             120.1544         estimate D2E/DX2                !
 ! A4    A(1,2,4)              120.3053         estimate D2E/DX2                !
 ! A5    A(1,2,9)              117.9522         estimate D2E/DX2                !
 ! A6    A(4,2,9)              121.7425         estimate D2E/DX2                !
 ! A7    A(1,3,6)              120.3051         estimate D2E/DX2                !
 ! A8    A(1,3,7)              117.953          estimate D2E/DX2                !
 ! A9    A(6,3,7)              121.7419         estimate D2E/DX2                !
 ! A10   A(2,4,5)              119.54           estimate D2E/DX2                !
 ! A11   A(2,4,8)              122.5116         estimate D2E/DX2                !
 ! A12   A(5,4,8)              117.9484         estimate D2E/DX2                !
 ! A13   A(4,5,6)              120.62           estimate D2E/DX2                !
 ! A14   A(4,5,11)             119.6895         estimate D2E/DX2                !
 ! A15   A(6,5,11)             119.6906         estimate D2E/DX2                !
 ! A16   A(3,6,5)              119.5387         estimate D2E/DX2                !
 ! A17   A(3,6,10)             122.5093         estimate D2E/DX2                !
 ! A18   A(5,6,10)             117.952          estimate D2E/DX2                !
 ! A19   A(3,7,40)             121.8925         estimate D2E/DX2                !
 ! A20   A(3,7,44)             123.314          estimate D2E/DX2                !
 ! A21   A(40,7,44)            114.7934         estimate D2E/DX2                !
 ! A22   A(4,8,19)             121.7131         estimate D2E/DX2                !
 ! A23   A(4,8,51)             123.5609         estimate D2E/DX2                !
 ! A24   A(19,8,51)            114.726          estimate D2E/DX2                !
 ! A25   A(2,9,39)             121.8933         estimate D2E/DX2                !
 ! A26   A(2,9,50)             123.3142         estimate D2E/DX2                !
 ! A27   A(39,9,50)            114.7925         estimate D2E/DX2                !
 ! A28   A(6,10,17)            121.7044         estimate D2E/DX2                !
 ! A29   A(6,10,41)            123.5667         estimate D2E/DX2                !
 ! A30   A(17,10,41)           114.7289         estimate D2E/DX2                !
 ! A31   A(5,11,12)            120.5981         estimate D2E/DX2                !
 ! A32   A(5,11,13)            120.5563         estimate D2E/DX2                !
 ! A33   A(12,11,13)           118.8456         estimate D2E/DX2                !
 ! A34   A(11,12,14)           120.4712         estimate D2E/DX2                !
 ! A35   A(11,12,19)           119.4346         estimate D2E/DX2                !
 ! A36   A(14,12,19)           120.0942         estimate D2E/DX2                !
 ! A37   A(11,13,15)           120.383          estimate D2E/DX2                !
 ! A38   A(11,13,17)           119.5154         estimate D2E/DX2                !
 ! A39   A(15,13,17)           120.1015         estimate D2E/DX2                !
 ! A40   A(12,14,16)           121.2133         estimate D2E/DX2                !
 ! A41   A(12,14,18)           117.7696         estimate D2E/DX2                !
 ! A42   A(16,14,18)           121.0171         estimate D2E/DX2                !
 ! A43   A(13,15,16)           121.4453         estimate D2E/DX2                !
 ! A44   A(13,15,20)           118.6281         estimate D2E/DX2                !
 ! A45   A(16,15,20)           119.9266         estimate D2E/DX2                !
 ! A46   A(14,16,15)           117.6415         estimate D2E/DX2                !
 ! A47   A(14,16,53)           122.8088         estimate D2E/DX2                !
 ! A48   A(15,16,53)           119.5496         estimate D2E/DX2                !
 ! A49   A(10,17,13)           120.5813         estimate D2E/DX2                !
 ! A50   A(10,17,42)           118.9232         estimate D2E/DX2                !
 ! A51   A(13,17,42)           120.4955         estimate D2E/DX2                !
 ! A52   A(8,19,12)            120.6164         estimate D2E/DX2                !
 ! A53   A(8,19,52)            118.8768         estimate D2E/DX2                !
 ! A54   A(12,19,52)           120.5069         estimate D2E/DX2                !
 ! A55   A(22,21,23)           117.6413         estimate D2E/DX2                !
 ! A56   A(22,21,54)           119.5499         estimate D2E/DX2                !
 ! A57   A(23,21,54)           122.8088         estimate D2E/DX2                !
 ! A58   A(21,22,24)           121.4454         estimate D2E/DX2                !
 ! A59   A(21,22,33)           119.9264         estimate D2E/DX2                !
 ! A60   A(24,22,33)           118.6282         estimate D2E/DX2                !
 ! A61   A(21,23,25)           121.2137         estimate D2E/DX2                !
 ! A62   A(21,23,34)           121.0171         estimate D2E/DX2                !
 ! A63   A(25,23,34)           117.7693         estimate D2E/DX2                !
 ! A64   A(22,24,26)           120.3832         estimate D2E/DX2                !
 ! A65   A(22,24,35)           120.1013         estimate D2E/DX2                !
 ! A66   A(26,24,35)           119.5155         estimate D2E/DX2                !
 ! A67   A(23,25,26)           120.4712         estimate D2E/DX2                !
 ! A68   A(23,25,36)           120.0943         estimate D2E/DX2                !
 ! A69   A(26,25,36)           119.4345         estimate D2E/DX2                !
 ! A70   A(24,26,25)           118.8453         estimate D2E/DX2                !
 ! A71   A(24,26,27)           120.5563         estimate D2E/DX2                !
 ! A72   A(25,26,27)           120.5984         estimate D2E/DX2                !
 ! A73   A(26,27,28)           119.6891         estimate D2E/DX2                !
 ! A74   A(26,27,29)           119.6904         estimate D2E/DX2                !
 ! A75   A(28,27,29)           120.6205         estimate D2E/DX2                !
 ! A76   A(27,28,30)           119.5395         estimate D2E/DX2                !
 ! A77   A(27,28,37)           117.9486         estimate D2E/DX2                !
 ! A78   A(30,28,37)           122.5119         estimate D2E/DX2                !
 ! A79   A(27,29,31)           119.5384         estimate D2E/DX2                !
 ! A80   A(27,29,38)           117.9522         estimate D2E/DX2                !
 ! A81   A(31,29,38)           122.5094         estimate D2E/DX2                !
 ! A82   A(28,30,32)           120.3055         estimate D2E/DX2                !
 ! A83   A(28,30,39)           121.7418         estimate D2E/DX2                !
 ! A84   A(32,30,39)           117.9527         estimate D2E/DX2                !
 ! A85   A(29,31,32)           120.3048         estimate D2E/DX2                !
 ! A86   A(29,31,40)           121.7415         estimate D2E/DX2                !
 ! A87   A(32,31,40)           117.9537         estimate D2E/DX2                !
 ! A88   A(1,32,30)            120.1547         estimate D2E/DX2                !
 ! A89   A(1,32,31)            120.154          estimate D2E/DX2                !
 ! A90   A(30,32,31)           119.6913         estimate D2E/DX2                !
 ! A91   A(24,35,38)           120.581          estimate D2E/DX2                !
 ! A92   A(24,35,45)           120.4955         estimate D2E/DX2                !
 ! A93   A(38,35,45)           118.9234         estimate D2E/DX2                !
 ! A94   A(25,36,37)           120.6161         estimate D2E/DX2                !
 ! A95   A(25,36,47)           120.5073         estimate D2E/DX2                !
 ! A96   A(37,36,47)           118.8766         estimate D2E/DX2                !
 ! A97   A(28,37,36)           121.7132         estimate D2E/DX2                !
 ! A98   A(28,37,48)           123.561          estimate D2E/DX2                !
 ! A99   A(36,37,48)           114.7257         estimate D2E/DX2                !
 ! A100  A(29,38,35)           121.7046         estimate D2E/DX2                !
 ! A101  A(29,38,46)           123.5665         estimate D2E/DX2                !
 ! A102  A(35,38,46)           114.7289         estimate D2E/DX2                !
 ! A103  A(9,39,30)            121.8925         estimate D2E/DX2                !
 ! A104  A(9,39,49)            114.7928         estimate D2E/DX2                !
 ! A105  A(30,39,49)           123.3147         estimate D2E/DX2                !
 ! A106  A(7,40,31)            121.8924         estimate D2E/DX2                !
 ! A107  A(7,40,43)            114.7932         estimate D2E/DX2                !
 ! A108  A(31,40,43)           123.3144         estimate D2E/DX2                !
 ! A109  A(16,53,55)           113.0735         estimate D2E/DX2                !
 ! A110  A(16,53,56)           109.4788         estimate D2E/DX2                !
 ! A111  A(16,53,57)           109.4783         estimate D2E/DX2                !
 ! A112  A(55,53,56)           107.5888         estimate D2E/DX2                !
 ! A113  A(55,53,57)           107.589          estimate D2E/DX2                !
 ! A114  A(56,53,57)           109.5639         estimate D2E/DX2                !
 ! A115  A(21,54,58)           113.0733         estimate D2E/DX2                !
 ! A116  A(21,54,59)           109.4784         estimate D2E/DX2                !
 ! A117  A(21,54,60)           109.4789         estimate D2E/DX2                !
 ! A118  A(58,54,59)           107.5889         estimate D2E/DX2                !
 ! A119  A(58,54,60)           107.5887         estimate D2E/DX2                !
 ! A120  A(59,54,60)           109.5642         estimate D2E/DX2                !
 ! A121  A(53,55,67)           110.9626         estimate D2E/DX2                !
 ! A122  A(53,55,68)           110.7592         estimate D2E/DX2                !
 ! A123  A(53,55,69)           110.9622         estimate D2E/DX2                !
 ! A124  A(67,55,68)           107.4202         estimate D2E/DX2                !
 ! A125  A(67,55,69)           109.182          estimate D2E/DX2                !
 ! A126  A(68,55,69)           107.4202         estimate D2E/DX2                !
 ! A127  A(53,56,70)           110.3601         estimate D2E/DX2                !
 ! A128  A(53,56,71)           111.8004         estimate D2E/DX2                !
 ! A129  A(53,56,72)           110.7557         estimate D2E/DX2                !
 ! A130  A(70,56,71)           108.1874         estimate D2E/DX2                !
 ! A131  A(70,56,72)           108.2802         estimate D2E/DX2                !
 ! A132  A(71,56,72)           107.3232         estimate D2E/DX2                !
 ! A133  A(53,57,73)           110.3601         estimate D2E/DX2                !
 ! A134  A(53,57,74)           110.7555         estimate D2E/DX2                !
 ! A135  A(53,57,75)           111.8009         estimate D2E/DX2                !
 ! A136  A(73,57,74)           108.2802         estimate D2E/DX2                !
 ! A137  A(73,57,75)           108.187          estimate D2E/DX2                !
 ! A138  A(74,57,75)           107.3234         estimate D2E/DX2                !
 ! A139  A(54,58,61)           110.9621         estimate D2E/DX2                !
 ! A140  A(54,58,62)           110.7586         estimate D2E/DX2                !
 ! A141  A(54,58,63)           110.9627         estimate D2E/DX2                !
 ! A142  A(61,58,62)           107.4201         estimate D2E/DX2                !
 ! A143  A(61,58,63)           109.1824         estimate D2E/DX2                !
 ! A144  A(62,58,63)           107.4204         estimate D2E/DX2                !
 ! A145  A(54,59,76)           110.36           estimate D2E/DX2                !
 ! A146  A(54,59,77)           111.8            estimate D2E/DX2                !
 ! A147  A(54,59,78)           110.7555         estimate D2E/DX2                !
 ! A148  A(76,59,77)           108.1871         estimate D2E/DX2                !
 ! A149  A(76,59,78)           108.2806         estimate D2E/DX2                !
 ! A150  A(77,59,78)           107.324          estimate D2E/DX2                !
 ! A151  A(54,60,64)           110.3603         estimate D2E/DX2                !
 ! A152  A(54,60,65)           110.7555         estimate D2E/DX2                !
 ! A153  A(54,60,66)           111.8002         estimate D2E/DX2                !
 ! A154  A(64,60,65)           108.2809         estimate D2E/DX2                !
 ! A155  A(64,60,66)           108.1863         estimate D2E/DX2                !
 ! A156  A(65,60,66)           107.324          estimate D2E/DX2                !
 ! D1    D(3,1,2,4)             -0.0007         estimate D2E/DX2                !
 ! D2    D(3,1,2,9)            179.9996         estimate D2E/DX2                !
 ! D3    D(32,1,2,4)           179.9985         estimate D2E/DX2                !
 ! D4    D(32,1,2,9)            -0.0012         estimate D2E/DX2                !
 ! D5    D(2,1,3,6)              0.0009         estimate D2E/DX2                !
 ! D6    D(2,1,3,7)           -179.9996         estimate D2E/DX2                !
 ! D7    D(32,1,3,6)          -179.9983         estimate D2E/DX2                !
 ! D8    D(32,1,3,7)             0.0012         estimate D2E/DX2                !
 ! D9    D(2,1,32,30)           -0.0006         estimate D2E/DX2                !
 ! D10   D(2,1,32,31)         -179.999          estimate D2E/DX2                !
 ! D11   D(3,1,32,30)          179.9986         estimate D2E/DX2                !
 ! D12   D(3,1,32,31)            0.0002         estimate D2E/DX2                !
 ! D13   D(1,2,4,5)             -0.0006         estimate D2E/DX2                !
 ! D14   D(1,2,4,8)           -179.9987         estimate D2E/DX2                !
 ! D15   D(9,2,4,5)            179.9991         estimate D2E/DX2                !
 ! D16   D(9,2,4,8)              0.001          estimate D2E/DX2                !
 ! D17   D(1,2,9,39)             0.0016         estimate D2E/DX2                !
 ! D18   D(1,2,9,50)           179.9998         estimate D2E/DX2                !
 ! D19   D(4,2,9,39)          -179.9981         estimate D2E/DX2                !
 ! D20   D(4,2,9,50)             0.0001         estimate D2E/DX2                !
 ! D21   D(1,3,6,5)              0.0002         estimate D2E/DX2                !
 ! D22   D(1,3,6,10)           179.999          estimate D2E/DX2                !
 ! D23   D(7,3,6,5)           -179.9993         estimate D2E/DX2                !
 ! D24   D(7,3,6,10)            -0.0006         estimate D2E/DX2                !
 ! D25   D(1,3,7,40)            -0.0017         estimate D2E/DX2                !
 ! D26   D(1,3,7,44)           180.0            estimate D2E/DX2                !
 ! D27   D(6,3,7,40)           179.9979         estimate D2E/DX2                !
 ! D28   D(6,3,7,44)            -0.0004         estimate D2E/DX2                !
 ! D29   D(2,4,5,6)              0.0017         estimate D2E/DX2                !
 ! D30   D(2,4,5,11)          -179.9981         estimate D2E/DX2                !
 ! D31   D(8,4,5,6)            179.9999         estimate D2E/DX2                !
 ! D32   D(8,4,5,11)             0.0002         estimate D2E/DX2                !
 ! D33   D(2,4,8,19)           179.9983         estimate D2E/DX2                !
 ! D34   D(2,4,8,51)            -0.0016         estimate D2E/DX2                !
 ! D35   D(5,4,8,19)             0.0002         estimate D2E/DX2                !
 ! D36   D(5,4,8,51)          -179.9998         estimate D2E/DX2                !
 ! D37   D(4,5,6,3)             -0.0015         estimate D2E/DX2                !
 ! D38   D(4,5,6,10)           179.9997         estimate D2E/DX2                !
 ! D39   D(11,5,6,3)           179.9983         estimate D2E/DX2                !
 ! D40   D(11,5,6,10)           -0.0006         estimate D2E/DX2                !
 ! D41   D(4,5,11,12)            0.0            estimate D2E/DX2                !
 ! D42   D(4,5,11,13)          179.9996         estimate D2E/DX2                !
 ! D43   D(6,5,11,12)         -179.9997         estimate D2E/DX2                !
 ! D44   D(6,5,11,13)           -0.0001         estimate D2E/DX2                !
 ! D45   D(3,6,10,17)         -179.9985         estimate D2E/DX2                !
 ! D46   D(3,6,10,41)            0.0015         estimate D2E/DX2                !
 ! D47   D(5,6,10,17)            0.0003         estimate D2E/DX2                !
 ! D48   D(5,6,10,41)         -179.9997         estimate D2E/DX2                !
 ! D49   D(3,7,40,31)            0.0007         estimate D2E/DX2                !
 ! D50   D(3,7,40,43)         -179.9989         estimate D2E/DX2                !
 ! D51   D(44,7,40,31)         179.9992         estimate D2E/DX2                !
 ! D52   D(44,7,40,43)          -0.0005         estimate D2E/DX2                !
 ! D53   D(4,8,19,12)           -0.0007         estimate D2E/DX2                !
 ! D54   D(4,8,19,52)         -179.9996         estimate D2E/DX2                !
 ! D55   D(51,8,19,12)         179.9993         estimate D2E/DX2                !
 ! D56   D(51,8,19,52)           0.0004         estimate D2E/DX2                !
 ! D57   D(2,9,39,30)           -0.0003         estimate D2E/DX2                !
 ! D58   D(2,9,39,49)          179.9988         estimate D2E/DX2                !
 ! D59   D(50,9,39,30)        -179.9986         estimate D2E/DX2                !
 ! D60   D(50,9,39,49)           0.0004         estimate D2E/DX2                !
 ! D61   D(6,10,17,13)           0.0006         estimate D2E/DX2                !
 ! D62   D(6,10,17,42)         179.9995         estimate D2E/DX2                !
 ! D63   D(41,10,17,13)       -179.9993         estimate D2E/DX2                !
 ! D64   D(41,10,17,42)         -0.0004         estimate D2E/DX2                !
 ! D65   D(5,11,12,14)         179.9986         estimate D2E/DX2                !
 ! D66   D(5,11,12,19)          -0.0005         estimate D2E/DX2                !
 ! D67   D(13,11,12,14)         -0.0011         estimate D2E/DX2                !
 ! D68   D(13,11,12,19)        179.9999         estimate D2E/DX2                !
 ! D69   D(5,11,13,15)        -179.9988         estimate D2E/DX2                !
 ! D70   D(5,11,13,17)           0.0011         estimate D2E/DX2                !
 ! D71   D(12,11,13,15)          0.0008         estimate D2E/DX2                !
 ! D72   D(12,11,13,17)       -179.9993         estimate D2E/DX2                !
 ! D73   D(11,12,14,16)          0.0003         estimate D2E/DX2                !
 ! D74   D(11,12,14,18)       -179.9995         estimate D2E/DX2                !
 ! D75   D(19,12,14,16)        179.9993         estimate D2E/DX2                !
 ! D76   D(19,12,14,18)         -0.0005         estimate D2E/DX2                !
 ! D77   D(11,12,19,8)           0.0008         estimate D2E/DX2                !
 ! D78   D(11,12,19,52)        179.9997         estimate D2E/DX2                !
 ! D79   D(14,12,19,8)        -179.9982         estimate D2E/DX2                !
 ! D80   D(14,12,19,52)          0.0006         estimate D2E/DX2                !
 ! D81   D(11,13,15,16)          0.0002         estimate D2E/DX2                !
 ! D82   D(11,13,15,20)        179.9997         estimate D2E/DX2                !
 ! D83   D(17,13,15,16)       -179.9997         estimate D2E/DX2                !
 ! D84   D(17,13,15,20)         -0.0002         estimate D2E/DX2                !
 ! D85   D(11,13,17,10)         -0.0013         estimate D2E/DX2                !
 ! D86   D(11,13,17,42)        179.9998         estimate D2E/DX2                !
 ! D87   D(15,13,17,10)        179.9986         estimate D2E/DX2                !
 ! D88   D(15,13,17,42)         -0.0003         estimate D2E/DX2                !
 ! D89   D(12,14,16,15)          0.0007         estimate D2E/DX2                !
 ! D90   D(12,14,16,53)       -179.9987         estimate D2E/DX2                !
 ! D91   D(18,14,16,15)       -179.9995         estimate D2E/DX2                !
 ! D92   D(18,14,16,53)          0.0011         estimate D2E/DX2                !
 ! D93   D(13,15,16,14)         -0.001          estimate D2E/DX2                !
 ! D94   D(13,15,16,53)        179.9985         estimate D2E/DX2                !
 ! D95   D(20,15,16,14)        179.9996         estimate D2E/DX2                !
 ! D96   D(20,15,16,53)         -0.001          estimate D2E/DX2                !
 ! D97   D(14,16,53,55)         -0.0004         estimate D2E/DX2                !
 ! D98   D(14,16,53,56)       -119.9391         estimate D2E/DX2                !
 ! D99   D(14,16,53,57)        119.9383         estimate D2E/DX2                !
 ! D100  D(15,16,53,55)       -179.9998         estimate D2E/DX2                !
 ! D101  D(15,16,53,56)         60.0615         estimate D2E/DX2                !
 ! D102  D(15,16,53,57)        -60.0612         estimate D2E/DX2                !
 ! D103  D(23,21,22,24)          0.0013         estimate D2E/DX2                !
 ! D104  D(23,21,22,33)       -179.9996         estimate D2E/DX2                !
 ! D105  D(54,21,22,24)       -179.9986         estimate D2E/DX2                !
 ! D106  D(54,21,22,33)          0.0004         estimate D2E/DX2                !
 ! D107  D(22,21,23,25)         -0.0017         estimate D2E/DX2                !
 ! D108  D(22,21,23,34)       -180.0            estimate D2E/DX2                !
 ! D109  D(54,21,23,25)        179.9983         estimate D2E/DX2                !
 ! D110  D(54,21,23,34)          0.0            estimate D2E/DX2                !
 ! D111  D(22,21,54,58)        179.9999         estimate D2E/DX2                !
 ! D112  D(22,21,54,59)         60.0615         estimate D2E/DX2                !
 ! D113  D(22,21,54,60)        -60.0615         estimate D2E/DX2                !
 ! D114  D(23,21,54,58)         -0.0001         estimate D2E/DX2                !
 ! D115  D(23,21,54,59)       -119.9385         estimate D2E/DX2                !
 ! D116  D(23,21,54,60)        119.9385         estimate D2E/DX2                !
 ! D117  D(21,22,24,26)          0.0            estimate D2E/DX2                !
 ! D118  D(21,22,24,35)        179.9987         estimate D2E/DX2                !
 ! D119  D(33,22,24,26)       -179.999          estimate D2E/DX2                !
 ! D120  D(33,22,24,35)         -0.0003         estimate D2E/DX2                !
 ! D121  D(21,23,25,26)          0.0007         estimate D2E/DX2                !
 ! D122  D(21,23,25,36)       -179.9988         estimate D2E/DX2                !
 ! D123  D(34,23,25,26)        179.999          estimate D2E/DX2                !
 ! D124  D(34,23,25,36)         -0.0004         estimate D2E/DX2                !
 ! D125  D(22,24,26,25)         -0.001          estimate D2E/DX2                !
 ! D126  D(22,24,26,27)        179.9984         estimate D2E/DX2                !
 ! D127  D(35,24,26,25)       -179.9998         estimate D2E/DX2                !
 ! D128  D(35,24,26,27)         -0.0003         estimate D2E/DX2                !
 ! D129  D(22,24,35,38)       -179.9985         estimate D2E/DX2                !
 ! D130  D(22,24,35,45)          0.0015         estimate D2E/DX2                !
 ! D131  D(26,24,35,38)          0.0002         estimate D2E/DX2                !
 ! D132  D(26,24,35,45)       -179.9997         estimate D2E/DX2                !
 ! D133  D(23,25,26,24)          0.0007         estimate D2E/DX2                !
 ! D134  D(23,25,26,27)       -179.9988         estimate D2E/DX2                !
 ! D135  D(36,25,26,24)       -179.9998         estimate D2E/DX2                !
 ! D136  D(36,25,26,27)          0.0007         estimate D2E/DX2                !
 ! D137  D(23,25,36,37)        179.9992         estimate D2E/DX2                !
 ! D138  D(23,25,36,47)         -0.0013         estimate D2E/DX2                !
 ! D139  D(26,25,36,37)         -0.0003         estimate D2E/DX2                !
 ! D140  D(26,25,36,47)        179.9993         estimate D2E/DX2                !
 ! D141  D(24,26,27,28)       -179.9998         estimate D2E/DX2                !
 ! D142  D(24,26,27,29)         -0.0003         estimate D2E/DX2                !
 ! D143  D(25,26,27,28)         -0.0003         estimate D2E/DX2                !
 ! D144  D(25,26,27,29)        179.9991         estimate D2E/DX2                !
 ! D145  D(26,27,28,30)        179.998          estimate D2E/DX2                !
 ! D146  D(26,27,28,37)         -0.0005         estimate D2E/DX2                !
 ! D147  D(29,27,28,30)         -0.0014         estimate D2E/DX2                !
 ! D148  D(29,27,28,37)       -179.9999         estimate D2E/DX2                !
 ! D149  D(26,27,29,31)       -179.9987         estimate D2E/DX2                !
 ! D150  D(26,27,29,38)          0.001          estimate D2E/DX2                !
 ! D151  D(28,27,29,31)          0.0007         estimate D2E/DX2                !
 ! D152  D(28,27,29,38)       -179.9996         estimate D2E/DX2                !
 ! D153  D(27,28,30,32)          0.0008         estimate D2E/DX2                !
 ! D154  D(27,28,30,39)       -179.9991         estimate D2E/DX2                !
 ! D155  D(37,28,30,32)        179.9992         estimate D2E/DX2                !
 ! D156  D(37,28,30,39)         -0.0007         estimate D2E/DX2                !
 ! D157  D(27,28,37,36)          0.0009         estimate D2E/DX2                !
 ! D158  D(27,28,37,48)        180.0            estimate D2E/DX2                !
 ! D159  D(30,28,37,36)       -179.9975         estimate D2E/DX2                !
 ! D160  D(30,28,37,48)          0.0015         estimate D2E/DX2                !
 ! D161  D(27,29,31,32)          0.0006         estimate D2E/DX2                !
 ! D162  D(27,29,31,40)        179.9989         estimate D2E/DX2                !
 ! D163  D(38,29,31,32)       -179.9991         estimate D2E/DX2                !
 ! D164  D(38,29,31,40)         -0.0007         estimate D2E/DX2                !
 ! D165  D(27,29,38,35)         -0.001          estimate D2E/DX2                !
 ! D166  D(27,29,38,46)        179.9993         estimate D2E/DX2                !
 ! D167  D(31,29,38,35)        179.9986         estimate D2E/DX2                !
 ! D168  D(31,29,38,46)         -0.0011         estimate D2E/DX2                !
 ! D169  D(28,30,32,1)        -179.998          estimate D2E/DX2                !
 ! D170  D(28,30,32,31)          0.0005         estimate D2E/DX2                !
 ! D171  D(39,30,32,1)           0.002          estimate D2E/DX2                !
 ! D172  D(39,30,32,31)       -179.9996         estimate D2E/DX2                !
 ! D173  D(28,30,39,9)         179.9984         estimate D2E/DX2                !
 ! D174  D(28,30,39,49)         -0.0006         estimate D2E/DX2                !
 ! D175  D(32,30,39,9)          -0.0016         estimate D2E/DX2                !
 ! D176  D(32,30,39,49)        179.9995         estimate D2E/DX2                !
 ! D177  D(29,31,32,1)         179.9973         estimate D2E/DX2                !
 ! D178  D(29,31,32,30)         -0.0012         estimate D2E/DX2                !
 ! D179  D(40,31,32,1)          -0.0011         estimate D2E/DX2                !
 ! D180  D(40,31,32,30)       -179.9996         estimate D2E/DX2                !
 ! D181  D(29,31,40,7)        -179.9977         estimate D2E/DX2                !
 ! D182  D(29,31,40,43)          0.0019         estimate D2E/DX2                !
 ! D183  D(32,31,40,7)           0.0007         estimate D2E/DX2                !
 ! D184  D(32,31,40,43)       -179.9997         estimate D2E/DX2                !
 ! D185  D(24,35,38,29)          0.0004         estimate D2E/DX2                !
 ! D186  D(24,35,38,46)       -179.9999         estimate D2E/DX2                !
 ! D187  D(45,35,38,29)       -179.9996         estimate D2E/DX2                !
 ! D188  D(45,35,38,46)          0.0001         estimate D2E/DX2                !
 ! D189  D(25,36,37,28)         -0.0006         estimate D2E/DX2                !
 ! D190  D(25,36,37,48)       -179.9997         estimate D2E/DX2                !
 ! D191  D(47,36,37,28)        179.9999         estimate D2E/DX2                !
 ! D192  D(47,36,37,48)          0.0008         estimate D2E/DX2                !
 ! D193  D(16,53,55,67)        -60.7862         estimate D2E/DX2                !
 ! D194  D(16,53,55,68)        179.9997         estimate D2E/DX2                !
 ! D195  D(16,53,55,69)         60.7858         estimate D2E/DX2                !
 ! D196  D(56,53,55,67)         60.2293         estimate D2E/DX2                !
 ! D197  D(56,53,55,68)        -58.9848         estimate D2E/DX2                !
 ! D198  D(56,53,55,69)       -178.1987         estimate D2E/DX2                !
 ! D199  D(57,53,55,67)        178.1988         estimate D2E/DX2                !
 ! D200  D(57,53,55,68)         58.9847         estimate D2E/DX2                !
 ! D201  D(57,53,55,69)        -60.2292         estimate D2E/DX2                !
 ! D202  D(16,53,56,70)         60.2718         estimate D2E/DX2                !
 ! D203  D(16,53,56,71)        -60.1927         estimate D2E/DX2                !
 ! D204  D(16,53,56,72)       -179.8321         estimate D2E/DX2                !
 ! D205  D(55,53,56,70)        -62.973          estimate D2E/DX2                !
 ! D206  D(55,53,56,71)        176.5625         estimate D2E/DX2                !
 ! D207  D(55,53,56,72)         56.9231         estimate D2E/DX2                !
 ! D208  D(57,53,56,70)       -179.658          estimate D2E/DX2                !
 ! D209  D(57,53,56,71)         59.8775         estimate D2E/DX2                !
 ! D210  D(57,53,56,72)        -59.7619         estimate D2E/DX2                !
 ! D211  D(16,53,57,73)        -60.2713         estimate D2E/DX2                !
 ! D212  D(16,53,57,74)        179.8328         estimate D2E/DX2                !
 ! D213  D(16,53,57,75)         60.1929         estimate D2E/DX2                !
 ! D214  D(55,53,57,73)         62.9733         estimate D2E/DX2                !
 ! D215  D(55,53,57,74)        -56.9226         estimate D2E/DX2                !
 ! D216  D(55,53,57,75)       -176.5625         estimate D2E/DX2                !
 ! D217  D(56,53,57,73)        179.6581         estimate D2E/DX2                !
 ! D218  D(56,53,57,74)         59.7622         estimate D2E/DX2                !
 ! D219  D(56,53,57,75)        -59.8776         estimate D2E/DX2                !
 ! D220  D(21,54,58,61)        -60.7863         estimate D2E/DX2                !
 ! D221  D(21,54,58,62)       -179.9996         estimate D2E/DX2                !
 ! D222  D(21,54,58,63)         60.7863         estimate D2E/DX2                !
 ! D223  D(59,54,58,61)         60.2286         estimate D2E/DX2                !
 ! D224  D(59,54,58,62)        -58.9847         estimate D2E/DX2                !
 ! D225  D(59,54,58,63)       -178.1988         estimate D2E/DX2                !
 ! D226  D(60,54,58,61)        178.1983         estimate D2E/DX2                !
 ! D227  D(60,54,58,62)         58.985          estimate D2E/DX2                !
 ! D228  D(60,54,58,63)        -60.2291         estimate D2E/DX2                !
 ! D229  D(21,54,59,76)         60.2711         estimate D2E/DX2                !
 ! D230  D(21,54,59,77)        -60.1927         estimate D2E/DX2                !
 ! D231  D(21,54,59,78)       -179.8326         estimate D2E/DX2                !
 ! D232  D(58,54,59,76)        -62.9733         estimate D2E/DX2                !
 ! D233  D(58,54,59,77)        176.563          estimate D2E/DX2                !
 ! D234  D(58,54,59,78)         56.9231         estimate D2E/DX2                !
 ! D235  D(60,54,59,76)       -179.6581         estimate D2E/DX2                !
 ! D236  D(60,54,59,77)         59.8782         estimate D2E/DX2                !
 ! D237  D(60,54,59,78)        -59.7617         estimate D2E/DX2                !
 ! D238  D(21,54,60,64)        -60.2711         estimate D2E/DX2                !
 ! D239  D(21,54,60,65)        179.832          estimate D2E/DX2                !
 ! D240  D(21,54,60,66)         60.1919         estimate D2E/DX2                !
 ! D241  D(58,54,60,64)         62.9735         estimate D2E/DX2                !
 ! D242  D(58,54,60,65)        -56.9235         estimate D2E/DX2                !
 ! D243  D(58,54,60,66)       -176.5635         estimate D2E/DX2                !
 ! D244  D(59,54,60,64)        179.6584         estimate D2E/DX2                !
 ! D245  D(59,54,60,65)         59.7615         estimate D2E/DX2                !
 ! D246  D(59,54,60,66)        -59.8786         estimate D2E/DX2                !
 --------------------------------------------------------------------------------
 Trust Radius=3.00D-01 FncErr=1.00D-07 GrdErr=1.00D-06 EigMax=2.50D+02 EigMin=1.00D-04
 Number of steps in this run=    468 maximum allowed number of steps=    468.
 GradGradGradGradGradGradGradGradGradGradGradGradGradGradGradGradGradGrad

 Stoichiometry    C44H34
 Framework group  C1[X(C44H34)]
 Deg. of freedom   228
 Full point group                 C1      NOp   1
 Largest Abelian subgroup         C1      NOp   1
 Largest concise Abelian subgroup C1      NOp   1
                         Standard orientation:                         
 ---------------------------------------------------------------------
 Center     Atomic      Atomic             Coordinates (Angstroms)
 Number     Number       Type             X           Y           Z
 ---------------------------------------------------------------------
      1          6           0        0.719999    0.015683   -0.000231
      2          6           0        1.434482    1.245523   -0.000217
      3          6           0        1.434467   -1.214150   -0.000221
      4          6           0        2.861799    1.249276   -0.000179
      5          6           0        3.565126    0.015744   -0.000141
      6          6           0        2.861769   -1.217905   -0.000178
      7          6           0        0.691318   -2.408412   -0.000245
      8          6           0        3.621812    2.448670   -0.000137
      9          6           0        0.691323    2.439776   -0.000237
     10          6           0        3.621792   -2.417423   -0.000144
     11          6           0        4.990937    0.015773   -0.000061
     12          6           0        5.707324    1.227265   -0.000018
     13          6           0        5.706207   -1.195734   -0.000015
     14          6           0        7.111228    1.224184    0.000091
     15          6           0        7.108570   -1.191464    0.000089
     16          6           0        7.840783    0.014195    0.000155
     17          6           0        5.012076   -2.401547   -0.000071
     18          1           0        7.616707    2.179057    0.000129
     19          6           0        5.012106    2.432948   -0.000065
     20          1           0        7.630123   -2.140065    0.000128
     21          6           0       -7.840783    0.014188    0.000157
     22          6           0       -7.108568   -1.191465    0.000082
     23          6           0       -7.111223    1.224183    0.000087
     24          6           0       -5.706204   -1.195733   -0.000029
     25          6           0       -5.707327    1.227270   -0.000017
     26          6           0       -4.990931    0.015775   -0.000069
     27          6           0       -3.565122    0.015744   -0.000148
     28          6           0       -2.861800    1.249278   -0.000182
     29          6           0       -2.861769   -1.217907   -0.000180
     30          6           0       -1.434477    1.245519   -0.000219
     31          6           0       -1.434460   -1.214152   -0.000232
     32          6           0       -0.719999    0.015683   -0.000238
     33          1           0       -7.630121   -2.140068    0.000126
     34          1           0       -7.616702    2.179059    0.000139
     35          6           0       -5.012074   -2.401550   -0.000074
     36          6           0       -5.012114    2.432952   -0.000059
     37          6           0       -3.621813    2.448671   -0.000146
     38          6           0       -3.621792   -2.417422   -0.000152
     39          6           0       -0.691327    2.439780   -0.000235
     40          6           0       -0.691323   -2.408410   -0.000242
     41          1           0        3.183316   -3.398811   -0.000172
     42          1           0        5.547255   -3.344498   -0.000040
     43          1           0       -1.142170   -3.384432   -0.000243
     44          1           0        1.142165   -3.384431   -0.000239
     45          1           0       -5.547255   -3.344500   -0.000048
     46          1           0       -3.183313   -3.398814   -0.000184
     47          1           0       -5.546418    3.376395   -0.000033
     48          1           0       -3.183280    3.430035   -0.000167
     49          1           0       -1.142162    3.415807   -0.000230
     50          1           0        1.142163    3.415810   -0.000226
     51          1           0        3.183276    3.430034   -0.000157
     52          1           0        5.546416    3.376391   -0.000029
     53          6           0        9.384973   -0.032208    0.000305
     54          6           0       -9.384976   -0.032213    0.000310
     55          6           0       10.034112    1.372999    0.000367
     56          6           0        9.877999   -0.773956   -1.261280
     57          6           0        9.877739   -0.773952    1.261991
     58          6           0      -10.034112    1.373002    0.000380
     59          6           0       -9.877744   -0.773957    1.261995
     60          6           0       -9.878006   -0.773950   -1.261276
     61          1           0       -9.740878    1.946454    0.906312
     62          1           0      -11.143212    1.294750    0.000496
     63          1           0       -9.741065    1.946468   -0.905602
     64          1           0       -9.535522   -0.247188   -2.178224
     65          1           0      -10.988473   -0.822327   -1.281109
     66          1           0       -9.501092   -1.816906   -1.299815
     67          1           0        9.741065    1.946459   -0.905612
     68          1           0       11.143215    1.294752    0.000481
     69          1           0        9.740876    1.946462    0.906295
     70          1           0        9.535524   -0.247194   -2.178223
     71          1           0        9.501097   -1.816912   -1.299805
     72          1           0       10.988466   -0.822336   -1.281119
     73          1           0        9.535072   -0.247187    2.178869
     74          1           0       10.988208   -0.822326    1.282059
     75          1           0        9.500832   -1.816912    1.300451
     76          1           0       -9.535073   -0.247198    2.178866
     77          1           0       -9.500825   -1.816919    1.300443
     78          1           0      -10.988199   -0.822330    1.282061
 ---------------------------------------------------------------------
 Rotational constants (GHZ):           0.3342313           0.0248819           0.0233986
 Standard basis: 6-31G(d) (6D, 7F)
 There are   728 symmetry adapted cartesian basis functions of A   symmetry.
 There are   728 symmetry adapted basis functions of A   symmetry.
   728 basis functions,  1368 primitive gaussians,   728 cartesian basis functions
   149 alpha electrons      149 beta electrons
       nuclear repulsion energy      4575.4043901890 Hartrees.
 NAtoms=   78 NActive=   78 NUniq=   78 SFac= 1.00D+00 NAtFMM=   60 NAOKFM=T Big=T
 Integral buffers will be    131072 words long.
 Raffenetti 2 integral format.
 Two-electron integral symmetry is turned on.
 One-electron integrals computed using PRISM.
 NBasis=   728 RedAO= T EigKep=  6.30D-05  NBF=   728
 NBsUse=   728 1.00D-06 EigRej= -1.00D+00 NBFU=   728
 ExpMin= 1.61D-01 ExpMax= 3.05D+03 ExpMxC= 4.57D+02 IAcc=3 IRadAn=         5 AccDes= 0.00D+00
 Harris functional with IExCor=  402 and IRadAn=       5 diagonalized for initial guess.
 HarFok:  IExCor=  402 AccDes= 0.00D+00 IRadAn=         5 IDoV= 1 UseB2=F ITyADJ=14
 ICtDFT=  3500011 ScaDFX=  1.000000  1.000000  1.000000  1.000000
 FoFCou: FMM=F IPFlag=           0 FMFlag=      100000 FMFlg1=        2001
         NFxFlg=           0 DoJE=T BraDBF=F KetDBF=T FulRan=T
         wScrn=  0.000000 ICntrl=       500 IOpCl=  0 I1Cent=   200000004 NGrid=           0
         NMat0=    1 NMatS0=      1 NMatT0=    0 NMatD0=    1 NMtDS0=    0 NMtDT0=    0
 Petite list used in FoFCou.
 Requested convergence on RMS density matrix=1.00D-08 within 128 cycles.
 Requested convergence on MAX density matrix=1.00D-06.
 Requested convergence on             energy=1.00D-06.
 No special actions if energy rises.
 Integral accuracy reduced to 1.0D-05 until final iterations.
 Initial convergence to 1.0D-05 achieved.  Increase integral accuracy.
 SCF Done:  E(RB3LYP) =  -1697.30005712     A.U. after   16 cycles
            NFock= 16  Conv=0.97D-08     -V/T= 2.0095

 **********************************************************************

            Population analysis using the SCF Density.

 **********************************************************************

 Orbital symmetries:
       Occupied  (A) (A) (A) (A) (A) (A) (A) (A) (A) (A) (A) (A)
                 (A) (A) (A) (A) (A) (A) (A) (A) (A) (A) (A) (A)
                 (A) (A) (A) (A) (A) (A) (A) (A) (A) (A) (A) (A)
                 (A) (A) (A) (A) (A) (A) (A) (A) (A) (A) (A) (A)
                 (A) (A) (A) (A) (A) (A) (A) (A) (A) (A) (A) (A)
                 (A) (A) (A) (A) (A) (A) (A) (A) (A) (A) (A) (A)
                 (A) (A) (A) (A) (A) (A) (A) (A) (A) (A) (A) (A)
                 (A) (A) (A) (A) (A) (A) (A) (A) (A) (A) (A) (A)
                 (A) (A) (A) (A) (A) (A) (A) (A) (A) (A) (A) (A)
                 (A) (A) (A) (A) (A) (A) (A) (A) (A) (A) (A) (A)
                 (A) (A) (A) (A) (A) (A) (A) (A) (A) (A) (A) (A)
                 (A) (A) (A) (A) (A) (A) (A) (A) (A) (A) (A) (A)
                 (A) (A) (A) (A) (A)
       Virtual   (A) (A) (A) (A) (A) (A) (A) (A) (A) (A) (A) (A)
                 (A) (A) (A) (A) (A) (A) (A) (A) (A) (A) (A) (A)
                 (A) (A) (A) (A) (A) (A) (A) (A) (A) (A) (A) (A)
                 (A) (A) (A) (A) (A) (A) (A) (A) (A) (A) (A) (A)
                 (A) (A) (A) (A) (A) (A) (A) (A) (A) (A) (A) (A)
                 (A) (A) (A) (A) (A) (A) (A) (A) (A) (A) (A) (A)
                 (A) (A) (A) (A) (A) (A) (A) (A) (A) (A) (A) (A)
                 (A) (A) (A) (A) (A) (A) (A) (A) (A) (A) (A) (A)
                 (A) (A) (A) (A) (A) (A) (A) (A) (A) (A) (A) (A)
                 (A) (A) (A) (A) (A) (A) (A) (A) (A) (A) (A) (A)
                 (A) (A) (A) (A) (A) (A) (A) (A) (A) (A) (A) (A)
                 (A) (A) (A) (A) (A) (A) (A) (A) (A) (A) (A) (A)
                 (A) (A) (A) (A) (A) (A) (A) (A) (A) (A) (A) (A)
                 (A) (A) (A) (A) (A) (A) (A) (A) (A) (A) (A) (A)
                 (A) (A) (A) (A) (A) (A) (A) (A) (A) (A) (A) (A)
                 (A) (A) (A) (A) (A) (A) (A) (A) (A) (A) (A) (A)
                 (A) (A) (A) (A) (A) (A) (A) (A) (A) (A) (A) (A)
                 (A) (A) (A) (A) (A) (A) (A) (A) (A) (A) (A) (A)
                 (A) (A) (A) (A) (A) (A) (A) (A) (A) (A) (A) (A)
                 (A) (A) (A) (A) (A) (A) (A) (A) (A) (A) (A) (A)
                 (A) (A) (A) (A) (A) (A) (A) (A) (A) (A) (A) (A)
                 (A) (A) (A) (A) (A) (A) (A) (A) (A) (A) (A) (A)
                 (A) (A) (A) (A) (A) (A) (A) (A) (A) (A) (A) (A)
                 (A) (A) (A) (A) (A) (A) (A) (A) (A) (A) (A) (A)
                 (A) (A) (A) (A) (A) (A) (A) (A) (A) (A) (A) (A)
                 (A) (A) (A) (A) (A) (A) (A) (A) (A) (A) (A) (A)
                 (A) (A) (A) (A) (A) (A) (A) (A) (A) (A) (A) (A)
                 (A) (A) (A) (A) (A) (A) (A) (A) (A) (A) (A) (A)
                 (A) (A) (A) (A) (A) (A) (A) (A) (A) (A) (A) (A)
                 (A) (A) (A) (A) (A) (A) (A) (A) (A) (A) (A) (A)
                 (A) (A) (A) (A) (A) (A) (A) (A) (A) (A) (A) (A)
                 (A) (A) (A) (A) (A) (A) (A) (A) (A) (A) (A) (A)
                 (A) (A) (A) (A) (A) (A) (A) (A) (A) (A) (A) (A)
                 (A) (A) (A) (A) (A) (A) (A) (A) (A) (A) (A) (A)
                 (A) (A) (A) (A) (A) (A) (A) (A) (A) (A) (A) (A)
                 (A) (A) (A) (A) (A) (A) (A) (A) (A) (A) (A) (A)
                 (A) (A) (A) (A) (A) (A) (A) (A) (A) (A) (A) (A)
                 (A) (A) (A) (A) (A) (A) (A) (A) (A) (A) (A) (A)
                 (A) (A) (A) (A) (A) (A) (A) (A) (A) (A) (A) (A)
                 (A) (A) (A) (A) (A) (A) (A) (A) (A) (A) (A) (A)
                 (A) (A) (A) (A) (A) (A) (A) (A) (A) (A) (A) (A)
                 (A) (A) (A) (A) (A) (A) (A) (A) (A) (A) (A) (A)
                 (A) (A) (A) (A) (A) (A) (A) (A) (A) (A) (A) (A)
                 (A) (A) (A) (A) (A) (A) (A) (A) (A) (A) (A) (A)
                 (A) (A) (A) (A) (A) (A) (A) (A) (A) (A) (A) (A)
                 (A) (A) (A) (A) (A) (A) (A) (A) (A) (A) (A) (A)
                 (A) (A) (A) (A) (A) (A) (A) (A) (A) (A) (A) (A)
                 (A) (A) (A) (A) (A) (A) (A) (A) (A) (A) (A) (A)
                 (A) (A) (A)
 The electronic state is 1-A.
 Alpha  occ. eigenvalues --  -10.20518 -10.20518 -10.19842 -10.19804 -10.19781
 Alpha  occ. eigenvalues --  -10.19781 -10.19776 -10.19776 -10.19650 -10.19650
 Alpha  occ. eigenvalues --  -10.19645 -10.19644 -10.19643 -10.19643 -10.19582
 Alpha  occ. eigenvalues --  -10.19582 -10.19052 -10.19052 -10.18967 -10.18967
 Alpha  occ. eigenvalues --  -10.18930 -10.18930 -10.18907 -10.18907 -10.18893
 Alpha  occ. eigenvalues --  -10.18893 -10.18690 -10.18690 -10.18680 -10.18680
 Alpha  occ. eigenvalues --  -10.18657 -10.18656 -10.18596 -10.18595 -10.18537
 Alpha  occ. eigenvalues --  -10.18537 -10.18536 -10.18536 -10.17983 -10.17983
 Alpha  occ. eigenvalues --  -10.17857 -10.17857 -10.17857 -10.17857  -0.90188
 Alpha  occ. eigenvalues --   -0.89303  -0.87635  -0.85135  -0.84190  -0.83450
 Alpha  occ. eigenvalues --   -0.83156  -0.81972  -0.81611  -0.80123  -0.77584
 Alpha  occ. eigenvalues --   -0.77349  -0.75640  -0.74933  -0.74416  -0.73786
 Alpha  occ. eigenvalues --   -0.73409  -0.71626  -0.71302  -0.68950  -0.68060
 Alpha  occ. eigenvalues --   -0.67985  -0.67985  -0.67533  -0.64418  -0.64364
 Alpha  occ. eigenvalues --   -0.63970  -0.62574  -0.62105  -0.61282  -0.61200
 Alpha  occ. eigenvalues --   -0.60492  -0.58788  -0.57550  -0.54641  -0.54008
 Alpha  occ. eigenvalues --   -0.53556  -0.52854  -0.51853  -0.51155  -0.50687
 Alpha  occ. eigenvalues --   -0.49796  -0.49440  -0.49054  -0.48545  -0.48467
 Alpha  occ. eigenvalues --   -0.47059  -0.46262  -0.45186  -0.44514  -0.43988
 Alpha  occ. eigenvalues --   -0.43986  -0.43674  -0.43670  -0.43625  -0.42583
 Alpha  occ. eigenvalues --   -0.42296  -0.42200  -0.42002  -0.41227  -0.41044
 Alpha  occ. eigenvalues --   -0.40853  -0.40823  -0.40397  -0.40171  -0.39472
 Alpha  occ. eigenvalues --   -0.38899  -0.38873  -0.38809  -0.38426  -0.38187
 Alpha  occ. eigenvalues --   -0.38043  -0.37919  -0.37801  -0.37345  -0.36960
 Alpha  occ. eigenvalues --   -0.36956  -0.36296  -0.36275  -0.35436  -0.35397
 Alpha  occ. eigenvalues --   -0.35125  -0.34928  -0.34131  -0.33448  -0.33139
 Alpha  occ. eigenvalues --   -0.33048  -0.32921  -0.32135  -0.31937  -0.31409
 Alpha  occ. eigenvalues --   -0.31397  -0.31336  -0.30896  -0.30770  -0.28207
 Alpha  occ. eigenvalues --   -0.27728  -0.25392  -0.24800  -0.24745  -0.24378
 Alpha  occ. eigenvalues --   -0.23851  -0.21564  -0.20499  -0.16047
 Alpha virt. eigenvalues --   -0.08593  -0.04222  -0.03455  -0.01751  -0.00334
 Alpha virt. eigenvalues --   -0.00216  -0.00006   0.01436   0.03554   0.04596
 Alpha virt. eigenvalues --    0.07936   0.07936   0.08565   0.09152   0.09610
 Alpha virt. eigenvalues --    0.10256   0.10263   0.11402   0.11486   0.11994
 Alpha virt. eigenvalues --    0.12138   0.12300   0.12918   0.12933   0.13342
 Alpha virt. eigenvalues --    0.14132   0.14484   0.14575   0.14618   0.15029
 Alpha virt. eigenvalues --    0.15208   0.15272   0.15824   0.15834   0.16181
 Alpha virt. eigenvalues --    0.17256   0.17987   0.18350   0.18435   0.19307
 Alpha virt. eigenvalues --    0.19746   0.19878   0.20542   0.20820   0.21473
 Alpha virt. eigenvalues --    0.21607   0.21708   0.22111   0.22115   0.22694
 Alpha virt. eigenvalues --    0.22876   0.23024   0.23157   0.23558   0.23819
 Alpha virt. eigenvalues --    0.24076   0.24711   0.24728   0.24934   0.25576
 Alpha virt. eigenvalues --    0.26294   0.26556   0.26641   0.26993   0.28015
 Alpha virt. eigenvalues --    0.28136   0.28472   0.28850   0.29243   0.30117
 Alpha virt. eigenvalues --    0.30269   0.31277   0.31942   0.32593   0.33247
 Alpha virt. eigenvalues --    0.35194   0.35439   0.35925   0.36523   0.36806
 Alpha virt. eigenvalues --    0.37838   0.38884   0.39028   0.39195   0.41232
 Alpha virt. eigenvalues --    0.43907   0.45616   0.46348   0.46890   0.47257
 Alpha virt. eigenvalues --    0.48306   0.48713   0.49266   0.49639   0.49646
 Alpha virt. eigenvalues --    0.50075   0.50401   0.50661   0.50830   0.50838
 Alpha virt. eigenvalues --    0.51354   0.51461   0.51957   0.52612   0.52736
 Alpha virt. eigenvalues --    0.52869   0.53205   0.53762   0.53802   0.53982
 Alpha virt. eigenvalues --    0.53987   0.54432   0.54586   0.55608   0.55697
 Alpha virt. eigenvalues --    0.55701   0.56072   0.56568   0.56729   0.56800
 Alpha virt. eigenvalues --    0.56811   0.57590   0.57988   0.58061   0.58065
 Alpha virt. eigenvalues --    0.58226   0.58281   0.58939   0.59091   0.59201
 Alpha virt. eigenvalues --    0.59251   0.59569   0.59603   0.59818   0.60017
 Alpha virt. eigenvalues --    0.60317   0.60967   0.61049   0.61109   0.61198
 Alpha virt. eigenvalues --    0.61305   0.61571   0.61713   0.62006   0.62244
 Alpha virt. eigenvalues --    0.62615   0.63090   0.63155   0.63165   0.63604
 Alpha virt. eigenvalues --    0.64641   0.65479   0.65598   0.66475   0.66569
 Alpha virt. eigenvalues --    0.67041   0.67618   0.68200   0.68979   0.69014
 Alpha virt. eigenvalues --    0.69683   0.70570   0.70684   0.71168   0.71883
 Alpha virt. eigenvalues --    0.71922   0.72160   0.72301   0.73091   0.73645
 Alpha virt. eigenvalues --    0.74983   0.75942   0.75962   0.76654   0.77563
 Alpha virt. eigenvalues --    0.78656   0.78730   0.79385   0.79860   0.80155
 Alpha virt. eigenvalues --    0.81027   0.81563   0.81581   0.82056   0.82236
 Alpha virt. eigenvalues --    0.82437   0.82986   0.83317   0.84552   0.84880
 Alpha virt. eigenvalues --    0.85035   0.85484   0.85633   0.85635   0.86375
 Alpha virt. eigenvalues --    0.86890   0.87185   0.88113   0.88236   0.88862
 Alpha virt. eigenvalues --    0.89026   0.89180   0.89594   0.90270   0.90701
 Alpha virt. eigenvalues --    0.90846   0.91170   0.91327   0.91457   0.91505
 Alpha virt. eigenvalues --    0.91558   0.91944   0.92038   0.92128   0.92246
 Alpha virt. eigenvalues --    0.93379   0.94152   0.94158   0.94696   0.94773
 Alpha virt. eigenvalues --    0.95169   0.95235   0.95397   0.95630   0.96615
 Alpha virt. eigenvalues --    0.96623   0.96950   0.97497   0.97609   0.98075
 Alpha virt. eigenvalues --    0.98401   0.98432   0.98500   0.99082   0.99312
 Alpha virt. eigenvalues --    0.99377   1.00256   1.00646   1.00920   1.01870
 Alpha virt. eigenvalues --    1.02407   1.03528   1.05416   1.05692   1.06356
 Alpha virt. eigenvalues --    1.06616   1.06728   1.09554   1.09584   1.10710
 Alpha virt. eigenvalues --    1.10966   1.13053   1.13413   1.14785   1.14911
 Alpha virt. eigenvalues --    1.15419   1.15795   1.16710   1.16889   1.19968
 Alpha virt. eigenvalues --    1.20616   1.20988   1.21091   1.21346   1.22293
 Alpha virt. eigenvalues --    1.22567   1.22580   1.23034   1.23442   1.24667
 Alpha virt. eigenvalues --    1.25351   1.26132   1.26635   1.27541   1.27795
 Alpha virt. eigenvalues --    1.27968   1.28570   1.28904   1.29091   1.29241
 Alpha virt. eigenvalues --    1.29749   1.33314   1.34201   1.34384   1.34787
 Alpha virt. eigenvalues --    1.35214   1.35722   1.36587   1.38273   1.39336
 Alpha virt. eigenvalues --    1.39590   1.39610   1.41318   1.41779   1.43011
 Alpha virt. eigenvalues --    1.43984   1.45033   1.46257   1.46378   1.46969
 Alpha virt. eigenvalues --    1.46978   1.47382   1.47568   1.47787   1.47882
 Alpha virt. eigenvalues --    1.48304   1.48487   1.48578   1.48708   1.49109
 Alpha virt. eigenvalues --    1.49248   1.52027   1.52548   1.52550   1.52792
 Alpha virt. eigenvalues --    1.53211   1.53474   1.55537   1.56042   1.56914
 Alpha virt. eigenvalues --    1.57138   1.58240   1.58334   1.58848   1.61137
 Alpha virt. eigenvalues --    1.63472   1.65721   1.65917   1.65918   1.67388
 Alpha virt. eigenvalues --    1.70071   1.70708   1.71040   1.71466   1.72957
 Alpha virt. eigenvalues --    1.72961   1.73028   1.73422   1.74001   1.74279
 Alpha virt. eigenvalues --    1.74544   1.75675   1.76095   1.77065   1.77343
 Alpha virt. eigenvalues --    1.78077   1.78305   1.78961   1.79234   1.80134
 Alpha virt. eigenvalues --    1.81011   1.82071   1.82100   1.82578   1.82785
 Alpha virt. eigenvalues --    1.83217   1.83370   1.86147   1.86176   1.86202
 Alpha virt. eigenvalues --    1.86328   1.86835   1.87191   1.87273   1.87622
 Alpha virt. eigenvalues --    1.88115   1.89225   1.90103   1.90550   1.92425
 Alpha virt. eigenvalues --    1.92890   1.93241   1.93473   1.93705   1.94471
 Alpha virt. eigenvalues --    1.94590   1.94723   1.95107   1.96546   1.96568
 Alpha virt. eigenvalues --    1.96751   1.96872   1.97558   1.98654   1.99409
 Alpha virt. eigenvalues --    1.99514   2.00436   2.00921   2.01732   2.03360
 Alpha virt. eigenvalues --    2.03736   2.03874   2.04406   2.05039   2.05779
 Alpha virt. eigenvalues --    2.07265   2.07397   2.07477   2.07999   2.08518
 Alpha virt. eigenvalues --    2.08631   2.09464   2.09480   2.12208   2.12286
 Alpha virt. eigenvalues --    2.12498   2.12738   2.13941   2.14045   2.14400
 Alpha virt. eigenvalues --    2.16566   2.16576   2.17636   2.19217   2.20719
 Alpha virt. eigenvalues --    2.21046   2.21417   2.21526   2.22401   2.22479
 Alpha virt. eigenvalues --    2.22585   2.22755   2.23638   2.24389   2.24481
 Alpha virt. eigenvalues --    2.24625   2.24727   2.24870   2.25523   2.25684
 Alpha virt. eigenvalues --    2.25943   2.26480   2.26618   2.26697   2.27287
 Alpha virt. eigenvalues --    2.27374   2.28309   2.28631   2.28760   2.29232
 Alpha virt. eigenvalues --    2.30515   2.31077   2.32996   2.33102   2.33782
 Alpha virt. eigenvalues --    2.33835   2.35171   2.35654   2.36053   2.36396
 Alpha virt. eigenvalues --    2.38402   2.38825   2.38902   2.39526   2.40571
 Alpha virt. eigenvalues --    2.41080   2.41248   2.42499   2.43056   2.45537
 Alpha virt. eigenvalues --    2.46324   2.46631   2.49065   2.49405   2.50159
 Alpha virt. eigenvalues --    2.51689   2.52154   2.52229   2.52772   2.54585
 Alpha virt. eigenvalues --    2.55436   2.55726   2.56594   2.57116   2.58544
 Alpha virt. eigenvalues --    2.59224   2.63558   2.64082   2.64576   2.64973
 Alpha virt. eigenvalues --    2.66944   2.67977   2.69124   2.69739   2.70454
 Alpha virt. eigenvalues --    2.71156   2.71595   2.71977   2.72519   2.73616
 Alpha virt. eigenvalues --    2.74452   2.75890   2.76238   2.76850   2.79084
 Alpha virt. eigenvalues --    2.80432   2.80886   2.82249   2.82986   2.83532
 Alpha virt. eigenvalues --    2.83998   2.85038   2.86190   2.86454   2.88026
 Alpha virt. eigenvalues --    2.88630   2.89752   2.90800   2.92501   2.93663
 Alpha virt. eigenvalues --    2.94880   2.95743   2.96113   2.96797   2.99009
 Alpha virt. eigenvalues --    3.00204   3.03638   3.03814   3.04796   3.07213
 Alpha virt. eigenvalues --    3.07343   3.15384   3.19228   3.19443   3.22456
 Alpha virt. eigenvalues --    3.25570   3.25729   3.32521   3.33516   3.41621
 Alpha virt. eigenvalues --    3.45268   3.54726   3.56607   3.64165   3.64434
 Alpha virt. eigenvalues --    4.08278   4.08941   4.09652   4.10313   4.10856
 Alpha virt. eigenvalues --    4.11333   4.12228   4.12375   4.13674   4.13940
 Alpha virt. eigenvalues --    4.14463   4.14723   4.15149   4.15526   4.16618
 Alpha virt. eigenvalues --    4.16842   4.18206   4.19656   4.20799   4.22231
 Alpha virt. eigenvalues --    4.24264   4.28236   4.29998   4.29999   4.31589
 Alpha virt. eigenvalues --    4.31774   4.34436   4.34750   4.35148   4.35278
 Alpha virt. eigenvalues --    4.36116   4.40353   4.43550   4.46849   4.51555
 Alpha virt. eigenvalues --    4.54696   4.59443   4.64785   4.65405   4.69833
 Alpha virt. eigenvalues --    4.72935   4.83241   4.95792   5.04348
          Condensed to atoms (all electrons):
 Mulliken charges:
               1
     1  C    0.023542
     2  C    0.071947
     3  C    0.071549
     4  C    0.070449
     5  C    0.048028
     6  C    0.070373
     7  C   -0.221973
     8  C   -0.211872
     9  C   -0.221974
    10  C   -0.212441
    11  C   -0.034047
    12  C    0.203910
    13  C    0.196234
    14  C   -0.307843
    15  C   -0.292498
    16  C    0.181098
    17  C   -0.223686
    18  H    0.127039
    19  C   -0.223858
    20  H    0.125639
    21  C    0.181096
    22  C   -0.292497
    23  C   -0.307847
    24  C    0.196227
    25  C    0.203924
    26  C   -0.034051
    27  C    0.048024
    28  C    0.070455
    29  C    0.070378
    30  C    0.071933
    31  C    0.071547
    32  C    0.023560
    33  H    0.125639
    34  H    0.127039
    35  C   -0.223683
    36  C   -0.223861
    37  C   -0.211874
    38  C   -0.212443
    39  C   -0.221966
    40  C   -0.221975
    41  H    0.133086
    42  H    0.128402
    43  H    0.132165
    44  H    0.132164
    45  H    0.128403
    46  H    0.133086
    47  H    0.128725
    48  H    0.133008
    49  H    0.132211
    50  H    0.132210
    51  H    0.133008
    52  H    0.128724
    53  C    0.021515
    54  C    0.021514
    55  C   -0.450459
    56  C   -0.434418
    57  C   -0.434416
    58  C   -0.450458
    59  C   -0.434417
    60  C   -0.434416
    61  H    0.142571
    62  H    0.140341
    63  H    0.142572
    64  H    0.145660
    65  H    0.136604
    66  H    0.140274
    67  H    0.142573
    68  H    0.140341
    69  H    0.142570
    70  H    0.145661
    71  H    0.140276
    72  H    0.136604
    73  H    0.145660
    74  H    0.136602
    75  H    0.140276
    76  H    0.145662
    77  H    0.140274
    78  H    0.136606
 Sum of Mulliken charges =  -0.00000
 Mulliken charges with hydrogens summed into heavy atoms:
               1
     1  C    0.023542
     2  C    0.071947
     3  C    0.071549
     4  C    0.070449
     5  C    0.048028
     6  C    0.070373
     7  C   -0.089810
     8  C   -0.078864
     9  C   -0.089764
    10  C   -0.079354
    11  C   -0.034047
    12  C    0.203910
    13  C    0.196234
    14  C   -0.180804
    15  C   -0.166859
    16  C    0.181098
    17  C   -0.095284
    19  C   -0.095134
    21  C    0.181096
    22  C   -0.166858
    23  C   -0.180809
    24  C    0.196227
    25  C    0.203924
    26  C   -0.034051
    27  C    0.048024
    28  C    0.070455
    29  C    0.070378
    30  C    0.071933
    31  C    0.071547
    32  C    0.023560
    35  C   -0.095280
    36  C   -0.095136
    37  C   -0.078867
    38  C   -0.079357
    39  C   -0.089755
    40  C   -0.089810
    53  C    0.021515
    54  C    0.021514
    55  C   -0.024975
    56  C   -0.011878
    57  C   -0.011879
    58  C   -0.024975
    59  C   -0.011876
    60  C   -0.011878
 Electronic spatial extent (au):  <R**2>=          43656.3464
 Charge=             -0.0000 electrons
 Dipole moment (field-independent basis, Debye):
    X=             -0.0000    Y=             -0.0217    Z=              0.0003  Tot=              0.0217
 Quadrupole moment (field-independent basis, Debye-Ang):
   XX=           -214.8922   YY=           -228.1376   ZZ=           -264.2963
   XY=             -0.0001   XZ=             -0.0002   YZ=              0.0001
 Traceless Quadrupole moment (field-independent basis, Debye-Ang):
   XX=             20.8832   YY=              7.6377   ZZ=            -28.5209
   XY=             -0.0001   XZ=             -0.0002   YZ=              0.0001
 Octapole moment (field-independent basis, Debye-Ang**2):
  XXX=             -0.0031  YYY=             -1.9812  ZZZ=              0.0048  XYY=              0.0003
  XXY=             -1.7916  XXZ=              0.0260  XZZ=             -0.0000  YZZ=              3.1966
  YYZ=             -0.0019  XYZ=             -0.0004
 Hexadecapole moment (field-independent basis, Debye-Ang**3):
 XXXX=         -52171.4791 YYYY=          -3795.6705 ZZZZ=           -638.3344 XXXY=             -0.0018
 XXXZ=             -0.0329 YYYX=             -0.0020 YYYZ=              0.0002 ZZZX=             -0.0023
 ZZZY=              0.0032 XXYY=          -9647.9441 XXZZ=          -9835.5010 YYZZ=           -862.4643
 XXYZ=             -0.0082 YYXZ=              0.0006 ZZXY=             -0.0004
 N-N= 4.575404390189D+03 E-N=-1.307953012815D+04  KE= 1.681274723032D+03
 Calling FoFJK, ICntrl=      2127 FMM=T ISym2X=0 I1Cent= 0 IOpClX= 0 NMat=1 NMatS=1 NMatT=0.
 ***** Axes restored to original set *****
 -------------------------------------------------------------------
 Center     Atomic                   Forces (Hartrees/Bohr)
 Number     Number              X              Y              Z
 -------------------------------------------------------------------
      1        6           0.005195686   -0.001012027   -0.000106901
      2        6          -0.007975097    0.000821882    0.000162552
      3        6          -0.008171864    0.002957149    0.000174848
      4        6           0.005471234    0.001562574   -0.000103699
      5        6          -0.004219450    0.001035874    0.000088472
      6        6           0.004889651   -0.003748158   -0.000112796
      7        6           0.026447834   -0.012665268   -0.000576691
      8        6          -0.030058111    0.011955534    0.000643691
      9        6           0.029009160   -0.000604976   -0.000578249
     10        6          -0.032900380    0.002575037    0.000661361
     11        6           0.011904537   -0.001662164   -0.000241463
     12        6          -0.023089261    0.000384048    0.000456869
     13        6          -0.023628902    0.009087929    0.000504253
     14        6          -0.013681240   -0.016772243    0.000202079
     15        6          -0.002972440    0.018492054    0.000133588
     16        6           0.003496291    0.003966880   -0.000052587
     17        6           0.036830547   -0.028173140   -0.000843186
     18        1          -0.001830535    0.002316935    0.000045460
     19        6           0.044257908    0.008210980   -0.000841442
     20        1          -0.000995118   -0.002242965    0.000010525
     21        6          -0.001352874    0.005118516    0.000049606
     22        6           0.010928925    0.015207994   -0.000155477
     23        6           0.004743222   -0.021124907   -0.000182767
     24        6           0.025197120   -0.002441793   -0.000512017
     25        6           0.020814659   -0.009990596   -0.000454406
     26        6          -0.011386295    0.003837507    0.000242463
[...]
 Alpha  occ. eigenvalues --  -10.19954 -10.19951 -10.19818 -10.19818 -10.19513
 Alpha  occ. eigenvalues --  -10.19513 -10.19472 -10.19472 -10.19462 -10.19462
 Alpha  occ. eigenvalues --  -10.19377 -10.19377 -10.19033 -10.19033 -10.19008
 Alpha  occ. eigenvalues --  -10.19008 -10.18961 -10.18961 -10.18940 -10.18937
 Alpha  occ. eigenvalues --  -10.18936 -10.18936 -10.18870 -10.18867 -10.18592
 Alpha  occ. eigenvalues --  -10.18592 -10.18539 -10.18539 -10.17503 -10.17503
 Alpha  occ. eigenvalues --  -10.17471 -10.17471 -10.17470 -10.17470  -0.89746
 Alpha  occ. eigenvalues --   -0.88786  -0.87215  -0.85046  -0.83945  -0.83554
 Alpha  occ. eigenvalues --   -0.82805  -0.81882  -0.81241  -0.80007  -0.77398
 Alpha  occ. eigenvalues --   -0.77087  -0.75785  -0.74677  -0.74409  -0.73797
 Alpha  occ. eigenvalues --   -0.73425  -0.71709  -0.71097  -0.69307  -0.68502
 Alpha  occ. eigenvalues --   -0.68387  -0.68387  -0.67950  -0.64367  -0.63972
 Alpha  occ. eigenvalues --   -0.63758  -0.62416  -0.61647  -0.61234  -0.61109
 Alpha  occ. eigenvalues --   -0.60236  -0.58467  -0.57653  -0.54792  -0.54073
 Alpha  occ. eigenvalues --   -0.53376  -0.52871  -0.51544  -0.51221  -0.50654
 Alpha  occ. eigenvalues --   -0.49919  -0.49305  -0.48934  -0.48294  -0.48265
 Alpha  occ. eigenvalues --   -0.47183  -0.46281  -0.45650  -0.44600  -0.44138
 Alpha  occ. eigenvalues --   -0.43845  -0.43843  -0.43750  -0.43533  -0.42551
 Alpha  occ. eigenvalues --   -0.42369  -0.42073  -0.41882  -0.41336  -0.40740
 Alpha  occ. eigenvalues --   -0.40704  -0.40565  -0.40558  -0.40046  -0.39563
 Alpha  occ. eigenvalues --   -0.39502  -0.39133  -0.39067  -0.38563  -0.38029
 Alpha  occ. eigenvalues --   -0.37983  -0.37866  -0.37670  -0.37452  -0.37391
 Alpha  occ. eigenvalues --   -0.37177  -0.36592  -0.36578  -0.35329  -0.35267
 Alpha  occ. eigenvalues --   -0.35178  -0.34533  -0.33973  -0.33649  -0.33137
 Alpha  occ. eigenvalues --   -0.33122  -0.32816  -0.32132  -0.31973  -0.31554
 Alpha  occ. eigenvalues --   -0.31434  -0.31355  -0.31169  -0.30138  -0.27882
 Alpha  occ. eigenvalues --   -0.27750  -0.25737  -0.25065  -0.24720  -0.24698
 Alpha  occ. eigenvalues --   -0.23732  -0.21277  -0.20747  -0.16635
 Alpha virt. eigenvalues --   -0.08209  -0.04141  -0.03800  -0.01459  -0.00441
 Alpha virt. eigenvalues --   -0.00121  -0.00016   0.01642   0.03167   0.04538
 Alpha virt. eigenvalues --    0.08153   0.08166   0.08340   0.09024   0.09605
 Alpha virt. eigenvalues --    0.09940   0.10239   0.11270   0.11660   0.11818
 Alpha virt. eigenvalues --    0.12226   0.12527   0.13189   0.13204   0.13396
 Alpha virt. eigenvalues --    0.14328   0.14335   0.14597   0.14811   0.15218
 Alpha virt. eigenvalues --    0.15274   0.15279   0.16129   0.16137   0.16151
 Alpha virt. eigenvalues --    0.17454   0.17787   0.18846   0.18888   0.19334
 Alpha virt. eigenvalues --    0.19916   0.20233   0.20609   0.21188   0.21478
 Alpha virt. eigenvalues --    0.21628   0.21980   0.22018   0.22044   0.22369
 Alpha virt. eigenvalues --    0.22945   0.22959   0.22988   0.23311   0.23845
 Alpha virt. eigenvalues --    0.24058   0.24260   0.24475   0.24864   0.25448
 Alpha virt. eigenvalues --    0.26103   0.26132   0.26578   0.26850   0.27596
 Alpha virt. eigenvalues --    0.27987   0.28523   0.28550   0.28863   0.29405
 Alpha virt. eigenvalues --    0.29785   0.30869   0.31271   0.32041   0.32974
 Alpha virt. eigenvalues --    0.34930   0.35382   0.35458   0.35867   0.36355
 Alpha virt. eigenvalues --    0.37203   0.37990   0.38667   0.38786   0.41437
 Alpha virt. eigenvalues --    0.43950   0.44554   0.45612   0.46038   0.46296
 Alpha virt. eigenvalues --    0.47560   0.48255   0.48945   0.49020   0.49647
 Alpha virt. eigenvalues --    0.49649   0.49999   0.50252   0.50267   0.50449
 Alpha virt. eigenvalues --    0.50935   0.51445   0.52105   0.52210   0.52427
 Alpha virt. eigenvalues --    0.52661   0.52848   0.52944   0.53635   0.53849
 Alpha virt. eigenvalues --    0.53897   0.54319   0.54523   0.55152   0.55460
 Alpha virt. eigenvalues --    0.55672   0.56222   0.56397   0.56408   0.56753
 Alpha virt. eigenvalues --    0.56819   0.57302   0.57442   0.57830   0.58029
 Alpha virt. eigenvalues --    0.58245   0.58267   0.58722   0.58782   0.58980
 Alpha virt. eigenvalues --    0.59103   0.59318   0.59416   0.59607   0.59630
 Alpha virt. eigenvalues --    0.59772   0.60161   0.60420   0.61025   0.61140
 Alpha virt. eigenvalues --    0.61194   0.61196   0.61601   0.61847   0.62100
 Alpha virt. eigenvalues --    0.62284   0.62369   0.63145   0.63288   0.63440
 Alpha virt. eigenvalues --    0.64912   0.65296   0.65352   0.65834   0.66634
 Alpha virt. eigenvalues --    0.67196   0.67395   0.68081   0.68842   0.69073
 Alpha virt. eigenvalues --    0.69782   0.70348   0.70428   0.70918   0.71216
 Alpha virt. eigenvalues --    0.71788   0.71994   0.72464   0.72881   0.73682
 Alpha virt. eigenvalues --    0.75001   0.76342   0.76360   0.76611   0.77267
 Alpha virt. eigenvalues --    0.78546   0.78948   0.79381   0.80219   0.80230
 Alpha virt. eigenvalues --    0.81424   0.81752   0.81756   0.82137   0.82578
 Alpha virt. eigenvalues --    0.82815   0.82995   0.83787   0.84622   0.84793
 Alpha virt. eigenvalues --    0.85286   0.85402   0.85670   0.85752   0.86163
 Alpha virt. eigenvalues --    0.86705   0.87411   0.88489   0.88715   0.88821
 Alpha virt. eigenvalues --    0.89586   0.89744   0.90067   0.90549   0.90807
 Alpha virt. eigenvalues --    0.91053   0.91494   0.91620   0.91739   0.91778
 Alpha virt. eigenvalues --    0.91800   0.92165   0.92428   0.92753   0.92801
 Alpha virt. eigenvalues --    0.93674   0.93944   0.94080   0.94434   0.94505
 Alpha virt. eigenvalues --    0.94745   0.95287   0.95369   0.95540   0.96366
 Alpha virt. eigenvalues --    0.96682   0.96975   0.97340   0.97597   0.97744
 Alpha virt. eigenvalues --    0.98702   0.98950   0.99348   0.99593   1.00151
 Alpha virt. eigenvalues --    1.00231   1.00699   1.01113   1.01226   1.01887
 Alpha virt. eigenvalues --    1.02015   1.03325   1.04498   1.05296   1.06014
 Alpha virt. eigenvalues --    1.06036   1.07156   1.08313   1.09056   1.10090
 Alpha virt. eigenvalues --    1.10149   1.12998   1.13355   1.14248   1.14602
 Alpha virt. eigenvalues --    1.15082   1.16115   1.17028   1.17444   1.20027
 Alpha virt. eigenvalues --    1.20891   1.20926   1.20960   1.21405   1.21706
 Alpha virt. eigenvalues --    1.21841   1.22222   1.22895   1.23531   1.24771
 Alpha virt. eigenvalues --    1.25472   1.26075   1.26205   1.26777   1.27563
 Alpha virt. eigenvalues --    1.27690   1.27721   1.28180   1.28462   1.28755
 Alpha virt. eigenvalues --    1.29439   1.33068   1.34115   1.34346   1.34582
 Alpha virt. eigenvalues --    1.35158   1.35272   1.36653   1.38236   1.39632
 Alpha virt. eigenvalues --    1.39691   1.39727   1.41420   1.41563   1.42980
 Alpha virt. eigenvalues --    1.43193   1.45217   1.46431   1.46852   1.46885
 Alpha virt. eigenvalues --    1.46957   1.46971   1.47065   1.47491   1.47558
 Alpha virt. eigenvalues --    1.48171   1.48432   1.48609   1.48663   1.48762
 Alpha virt. eigenvalues --    1.48887   1.51545   1.52477   1.52984   1.52987
 Alpha virt. eigenvalues --    1.53087   1.53571   1.55639   1.56048   1.56459
 Alpha virt. eigenvalues --    1.56544   1.58127   1.58177   1.58447   1.60901
 Alpha virt. eigenvalues --    1.62507   1.65328   1.65658   1.65660   1.66923
 Alpha virt. eigenvalues --    1.69328   1.70143   1.70256   1.70982   1.72463
 Alpha virt. eigenvalues --    1.72465   1.72478   1.72557   1.72613   1.74091
 Alpha virt. eigenvalues --    1.74293   1.74971   1.75570   1.76062   1.76255
 Alpha virt. eigenvalues --    1.77630   1.77757   1.78793   1.78953   1.79326
 Alpha virt. eigenvalues --    1.79860   1.81684   1.81714   1.81830   1.82392
 Alpha virt. eigenvalues --    1.82405   1.83129   1.85488   1.86037   1.86044
 Alpha virt. eigenvalues --    1.86141   1.86444   1.86889   1.86972   1.87850
 Alpha virt. eigenvalues --    1.88241   1.88735   1.88761   1.89559   1.90928
 Alpha virt. eigenvalues --    1.92127   1.92331   1.92364   1.92677   1.93458
 Alpha virt. eigenvalues --    1.93469   1.94303   1.94305   1.94831   1.95720
 Alpha virt. eigenvalues --    1.96329   1.96590   1.96634   1.96956   1.97810
 Alpha virt. eigenvalues --    1.98688   1.99217   2.00226   2.00304   2.01181
 Alpha virt. eigenvalues --    2.01869   2.02569   2.03931   2.04015   2.04765
 Alpha virt. eigenvalues --    2.04898   2.07143   2.07629   2.07975   2.08121
 Alpha virt. eigenvalues --    2.08464   2.08789   2.09393   2.11062   2.12256
 Alpha virt. eigenvalues --    2.12516   2.13245   2.13779   2.14329   2.14565
 Alpha virt. eigenvalues --    2.16499   2.16513   2.17215   2.17446   2.19803
 Alpha virt. eigenvalues --    2.20661   2.20814   2.21644   2.22643   2.23189
 Alpha virt. eigenvalues --    2.23987   2.24120   2.24250   2.24304   2.24828
 Alpha virt. eigenvalues --    2.24901   2.25041   2.25121   2.26472   2.26574
 Alpha virt. eigenvalues --    2.26691   2.26712   2.27402   2.28162   2.28288
 Alpha virt. eigenvalues --    2.28332   2.29202   2.29361   2.29570   2.29678
 Alpha virt. eigenvalues --    2.30758   2.31240   2.31635   2.32327   2.32695
 Alpha virt. eigenvalues --    2.32720   2.34067   2.35150   2.35560   2.36101
 Alpha virt. eigenvalues --    2.37449   2.37782   2.38123   2.38228   2.40419
 Alpha virt. eigenvalues --    2.40607   2.40799   2.41200   2.42159   2.45236
 Alpha virt. eigenvalues --    2.45890   2.46900   2.49412   2.50292   2.50528
 Alpha virt. eigenvalues --    2.50593   2.51788   2.52086   2.52797   2.54479
 Alpha virt. eigenvalues --    2.54638   2.55906   2.56823   2.57400   2.59058
 Alpha virt. eigenvalues --    2.59154   2.61828   2.63891   2.64073   2.64558
 Alpha virt. eigenvalues --    2.66851   2.67465   2.67749   2.68748   2.69349
 Alpha virt. eigenvalues --    2.69794   2.70496   2.71434   2.72141   2.72206
 Alpha virt. eigenvalues --    2.72775   2.74337   2.75649   2.76367   2.78653
 Alpha virt. eigenvalues --    2.79937   2.80745   2.81351   2.82232   2.82693
 Alpha virt. eigenvalues --    2.83955   2.84895   2.86476   2.86928   2.87903
 Alpha virt. eigenvalues --    2.88243   2.90157   2.90526   2.91175   2.93071
 Alpha virt. eigenvalues --    2.93583   2.94529   2.95126   2.95910   2.98323
 Alpha virt. eigenvalues --    3.00682   3.03037   3.03060   3.04060   3.08805
 Alpha virt. eigenvalues --    3.09204   3.13935   3.17098   3.19445   3.21051
 Alpha virt. eigenvalues --    3.22951   3.23297   3.29454   3.31444   3.38194
 Alpha virt. eigenvalues --    3.43398   3.50710   3.54429   3.60817   3.61838
 Alpha virt. eigenvalues --    4.06930   4.07768   4.09018   4.09056   4.10183
 Alpha virt. eigenvalues --    4.10303   4.11909   4.12588   4.13862   4.13976
 Alpha virt. eigenvalues --    4.14794   4.15005   4.15373   4.16090   4.17076
 Alpha virt. eigenvalues --    4.17357   4.18776   4.20057   4.21435   4.22272
 Alpha virt. eigenvalues --    4.23893   4.28140   4.30528   4.30528   4.32154
 Alpha virt. eigenvalues --    4.32490   4.34197   4.34552   4.34901   4.34943
 Alpha virt. eigenvalues --    4.35802   4.40423   4.43116   4.46847   4.50792
 Alpha virt. eigenvalues --    4.54584   4.58642   4.64182   4.64611   4.69871
 Alpha virt. eigenvalues --    4.72969   4.81698   4.93421   5.01916
          Condensed to atoms (all electrons):
 Mulliken charges:
               1
     1  C    0.017937
     2  C    0.057124
     3  C    0.056638
     4  C    0.050402
     5  C    0.048471
     6  C    0.048924
     7  C   -0.204488
     8  C   -0.187553
     9  C   -0.204807
    10  C   -0.186418
    11  C   -0.053113
    12  C    0.190942
    13  C    0.187297
    14  C   -0.316105
    15  C   -0.303681
    16  C    0.201933
    17  C   -0.211726
    18  H    0.125532
    19  C   -0.211590
    20  H    0.124013
    21  C    0.201933
    22  C   -0.303681
    23  C   -0.316105
    24  C    0.187297
    25  C    0.190942
    26  C   -0.053113
    27  C    0.048471
    28  C    0.050402
    29  C    0.048924
    30  C    0.057124
    31  C    0.056638
    32  C    0.017937
    33  H    0.124013
    34  H    0.125532
    35  C   -0.211726
    36  C   -0.211590
    37  C   -0.187553
    38  C   -0.186418
    39  C   -0.204807
    40  C   -0.204488
    41  H    0.134185
    42  H    0.128312
    43  H    0.134083
    44  H    0.134083
    45  H    0.128312
    46  H    0.134185
    47  H    0.128552
    48  H    0.134073
    49  H    0.134133
    50  H    0.134133
    51  H    0.134073
    52  H    0.128552
    53  C    0.014391
    54  C    0.014391
    55  C   -0.455706
    56  C   -0.439166
    57  C   -0.439167
    58  C   -0.455706
    59  C   -0.439167
    60  C   -0.439166
    61  H    0.146151
    62  H    0.141852
    63  H    0.146151
    64  H    0.148601
    65  H    0.138939
    66  H    0.143672
    67  H    0.146151
    68  H    0.141852
    69  H    0.146151
    70  H    0.148601
    71  H    0.143672
    72  H    0.138939
    73  H    0.148601
    74  H    0.138939
    75  H    0.143672
    76  H    0.148601
    77  H    0.143672
    78  H    0.138939
 Sum of Mulliken charges =  -0.00000
 Mulliken charges with hydrogens summed into heavy atoms:
               1
     1  C    0.017937
     2  C    0.057124
     3  C    0.056638
     4  C    0.050402
     5  C    0.048471
     6  C    0.048924
     7  C   -0.070405
     8  C   -0.053480
     9  C   -0.070674
    10  C   -0.052233
    11  C   -0.053113
    12  C    0.190942
    13  C    0.187297
    14  C   -0.190573
    15  C   -0.179668
    16  C    0.201933
    17  C   -0.083414
    19  C   -0.083037
    21  C    0.201933
    22  C   -0.179668
    23  C   -0.190573
    24  C    0.187297
    25  C    0.190942
    26  C   -0.053113
    27  C    0.048471
    28  C    0.050402
    29  C    0.048924
    30  C    0.057124
    31  C    0.056638
    32  C    0.017937
    35  C   -0.083414
    36  C   -0.083037
    37  C   -0.053480
    38  C   -0.052233
    39  C   -0.070674
    40  C   -0.070405
    53  C    0.014391
    54  C    0.014391
    55  C   -0.021552
    56  C   -0.007955
    57  C   -0.007955
    58  C   -0.021552
    59  C   -0.007955
    60  C   -0.007955
 Electronic spatial extent (au):  <R**2>=          43883.5467
 Charge=             -0.0000 electrons
 Dipole moment (field-independent basis, Debye):
    X=             -0.0000    Y=             -0.0218    Z=              0.0000  Tot=              0.0218
 Quadrupole moment (field-independent basis, Debye-Ang):
   XX=           -211.3980   YY=           -228.8582   ZZ=           -264.3633
   XY=             -0.0000   XZ=              0.0000   YZ=              0.0000
 Traceless Quadrupole moment (field-independent basis, Debye-Ang):
   XX=             23.4752   YY=              6.0150   ZZ=            -29.4901
   XY=             -0.0000   XZ=              0.0000   YZ=              0.0000
 Octapole moment (field-independent basis, Debye-Ang**2):
  XXX=             -0.0000  YYY=             -1.6516  ZZZ=              0.0002  XYY=             -0.0000
  XXY=             -1.3617  XXZ=              0.0006  XZZ=              0.0000  YZZ=              2.7483
  YYZ=             -0.0002  XYZ=              0.0000
 Hexadecapole moment (field-independent basis, Debye-Ang**3):
 XXXX=         -51882.9833 YYYY=          -3870.7667 ZZZZ=           -633.9074 XXXY=             -0.0000
 XXXZ=             -0.0000 YYYX=             -0.0000 YYYZ=              0.0000 ZZZX=              0.0001
 ZZZY=              0.0001 XXYY=          -9683.2065 XXZZ=          -9843.8839 YYZZ=           -871.5085
 XXYZ=             -0.0001 YYXZ=             -0.0001 ZZXY=              0.0000
 N-N= 4.560815652786D+03 E-N=-1.304993541130D+04  KE= 1.680874668917D+03
 Unable to Open any file for archive entry.
 1\1\GINC-CDR1209\FOpt\RB3LYP\6-31G(d)\C44H34\LUSTRA\26-Jan-2022\0\\#n 
 B3LYP/6-31G(d) Opt\\ditbutylteropyrenophane\\0,1\C,1.0124135188,-5.775
 4239632,0.3670964513\C,0.5980531271,-4.4066556703,0.3808978426\C,0.028
 8218768,-6.8146765453,0.3823333782\C,-0.7909105778,-4.0755116649,0.409
 7628377\C,-1.7645483083,-5.1199826909,0.4247801063\C,-1.3602123301,-6.
 4899140735,0.4111736767\C,0.489766239,-8.1666575671,0.3676802067\C,-1.
 2599819238,-2.7194065469,0.4245951013\C,1.614163687,-3.4037311341,0.36
 48706394\C,-2.3870559185,-7.4940161445,0.4274098223\C,-3.1585189117,-4
 .7908247156,0.4537358466\C,-3.5879158431,-3.4343860875,0.4677833812\C,
 -4.1506681489,-5.8140184137,0.4692066434\C,-4.9620879075,-3.1342758129
 ,0.4962279012\C,-5.5083952823,-5.4650668423,0.4975251693\C,-5.94218109
 09,-4.1310034689,0.5115685075\C,-3.7118858257,-7.1773621457,0.45494484
 63\H,-5.2453525071,-2.0871026681,0.5061172616\C,-2.5877431618,-2.41122
 22968,0.45215354\H,-6.2368993889,-6.2718183914,0.508657654\C,9.3728975
 163,-7.7473818809,0.1934183529\C,8.3882026106,-8.7464967175,0.20884201
 62\C,8.9421596902,-6.4175120136,0.2073861206\C,7.0177950972,-8.4512486
 807,0.2371968664\C,7.5788909205,-6.0712252002,0.2358082396\C,6.5881128
 853,-7.0923152253,0.2512627859\C,5.1941436882,-6.7631516911,0.28022273
 18\C,4.7905350486,-5.3934688854,0.2938159712\C,4.2197442995,-7.8075196
 834,0.2952576092\C,3.4001555239,-5.0683213426,0.3226879922\C,2.8321562
 198,-7.4766331206,0.3240978784\C,2.4173107327,-6.107164977,0.337911609
 6\H,8.678900897,-9.7939144596,0.198802067\H,9.6639057752,-5.6076539496
 ,0.1963978957\C,6.0155343163,-9.4743161684,0.2528707827\C,7.1420193304
 ,-4.7087294227,0.2500312048\C,5.8166478868,-4.3904244271,0.2775879635\
 C,4.6889960684,-9.1648975926,0.2804143643\C,2.9399763677,-3.7167977723
 ,0.3373286972\C,1.8151568326,-8.4796245282,0.3401470042\H,-2.110317386
 3,-8.5413707654,0.417648615\H,-4.4607866543,-7.9657055974,0.4665572956
 \H,2.0921573556,-9.5267191775,0.3303835735\H,-0.2263421232,-8.97924757
 59,0.3785472839\H,6.3327089409,-10.5143940467,0.2423368946\H,3.9730055
 684,-9.9778372291,0.2912757599\H,7.8915361437,-3.9209636093,0.23840270
 03\H,5.5407946176,-3.3428247138,0.2873339449\H,3.6562152195,-2.9043090
 158,0.326463469\H,1.3370013897,-2.3566687113,0.3746419913\H,-0.5446734
 927,-1.905851734,0.4137508863\H,-2.9057271615,-1.371385487,0.462700786
 \C,-7.4498934455,-3.8171910861,0.5427126569\C,10.861730721,-8.14114944
 27,0.1623137031\C,-7.7346759962,-2.3033476733,0.5545247345\C,-8.077480
 3156,-4.4342277102,1.8152810473\C,-8.127480195,-4.423937916,-0.7089918
 856\C,11.7935754329,-6.9145905135,0.148856158\C,11.1466844134,-8.97517
 91264,-1.1093881682\C,11.196698074,-8.985479473,1.4148844496\H,11.6282
 18472,-6.285926956,-0.733493883\H,12.8379358774,-7.2457302186,0.126816
 9797\H,11.6633938066,-6.2931685215,1.0421589644\H,11.010691403,-8.4159
 419412,2.3325825988\H,12.253538103,-9.2791838881,1.4048543753\H,10.597
 3130296,-9.9005490583,1.4629117314\H,-7.3053423702,-1.8140419887,1.436
 2021261\H,-8.8168479218,-2.1323453137,0.5766627801\H,-7.3405237717,-1.
 8068051948,-0.3394506371\H,-7.620502471,-4.0165169745,2.7196207854\H,-
 7.9491449953,-5.5211353295,1.848193814\H,-9.1535927204,-4.2242735299,1
 .8495600285\H,-7.7066066831,-3.9987950956,-1.6272840227\H,-9.204072669
 8,-4.2138882253,-0.698917151\H,-8.0007208727,-5.5105200996,-0.75581874
 77\H,10.9245680074,-8.3982035104,-2.0143217638\H,10.5457173745,-9.8899
 219691,-1.1411003542\H,12.2030442668,-9.2687869985,-1.1436224869\\Vers
 ion=ES64L-G16RevC.01\State=1-A\HF=-1697.3189853\RMSD=6.150e-09\RMSF=1.
 414e-05\Dipole=-0.0019726,-0.0083544,0.0000039\Quadrupole=16.752247,5.
 1568406,-21.9090876,-2.9000721,-0.7779993,0.1681173\PG=C01 [X(C44H34)]
 \\@
 The archive entry for this job was punched.


 ONLY THE DAY DAWNS TO WHICH YOU ARE AWAKE.

                                 -- THOREAU
 Job cpu time:       0 days  2 hours 22 minutes 47.5 seconds.
 Elapsed time:       0 days  1 hours 11 minutes 36.7 seconds.
 File lengths (MBytes):  RWF=    332 Int=      0 D2E=      0 Chk=     43 Scr=      1
 Normal termination of Gaussian 16 at Wed Jan 26 00:44:35 2022.
