 Entering Gaussian System, Link 0=g16
 Initial command:
 /opt/software/gaussian/g16.c01/l1.exe "/localscratch/lustra.25367106.0/Gau-48932.inp" -scrdir="/localscratch/lustra.25367106.0/"
 Entering Link 1 = /opt/software/gaussian/g16.c01/l1.exe PID=     48934.
  
 Copyright (c) 1988-2019, Gaussian, Inc.  All Rights Reserved.
  
 This is part of the Gaussian(R) 16 program.  It is based on
 the Gaussian(R) 09 system (copyright 2009, Gaussian, Inc.),
 the Gaussian(R) 03 system (copyright 2003, Gaussian, Inc.),
 the Gaussian(R) 98 system (copyright 1998, Gaussian, Inc.),
 the Gaussian(R) 94 system (copyright 1995, Gaussian, Inc.),
 the Gaussian 92(TM) system (copyright 1992, Gaussian, Inc.),
 the Gaussian 90(TM) system (copyright 1990, Gaussian, Inc.),
 the Gaussian 88(TM) system (copyright 1988, Gaussian, Inc.),
 the Gaussian 86(TM) system (copyright 1986, Carnegie Mellon
 University), and the Gaussian 82(TM) system (copyright 1983,
 Carnegie Mellon University). Gaussian is a federally registered
 trademark of Gaussian, Inc.
  
 This software contains proprietary and confidential information,
 including trade secrets, belonging to Gaussian, Inc.
  
 This software is provided under written license and may be
 used, copied, transmitted, or stored only in accord with that
 written license.
  
 The following legend is applicable only to US Government
 contracts under FAR:
  
                    RESTRICTED RIGHTS LEGEND
  
 Use, reproduction and disclosure by the US Government is
 subject to restrictions as set forth in subparagraphs (a)
 and (c) of the Commercial Computer Software - Restricted
 Rights clause in FAR 52.227-19.
  
 Gaussian, Inc.
 340 Quinnipiac St., Bldg. 40, Wallingford CT 06492
  
  
 ---------------------------------------------------------------
 Warning -- This program may not be used in any manner that
 competes with the business of Gaussian, Inc. or will provide
 assistance to any competitor of Gaussian, Inc.  The licensee
 of this program is prohibited from giving any competitor of
 Gaussian, Inc. access to this program.  By using this program,
 the user acknowledges that Gaussian, Inc. is engaged in the
 business of creating and licensing software in the field of
 computational chemistry and represents and warrants to the
 licensee that it is not a competitor of Gaussian, Inc. and that
 it will not use this program in any manner prohibited above.
 ---------------------------------------------------------------
  

 Cite this work as:
 Gaussian 16, Revision C.01,
 M. J. Frisch, G. W. Trucks, H. B. Schlegel, G. E. Scuseria, 
 M. A. Robb, J. R. Cheeseman, G. Scalmani, V. Barone, 
 G. A. Petersson, H. Nakatsuji, X. Li, M. Caricato, A. V. Marenich, 
 J. Bloino, B. G. Janesko, R. Gomperts, B. Mennucci, H. P. Hratchian, 
 J. V. Ortiz, A. F. Izmaylov, J. L. Sonnenberg, D. Williams-Young, 
 F. Ding, F. Lipparini, F. Egidi, J. Goings, B. Peng, A. Petrone, 
 T. Henderson, D. Ranasinghe, V. G. Zakrzewski, J. Gao, N. Rega, 
 G. Zheng, W. Liang, M. Hada, M. Ehara, K. Toyota, R. Fukuda, 
 J. Hasegawa, M. Ishida, T. Nakajima, Y. Honda, O. Kitao, H. Nakai, 
 T. Vreven, K. Throssell, J. A. Montgomery, Jr., J. E. Peralta, 
 F. Ogliaro, M. J. Bearpark, J. J. Heyd, E. N. Brothers, K. N. Kudin, 
 V. N. Staroverov, T. A. Keith, R. Kobayashi, J. Normand, 
 K. Raghavachari, A. P. Rendell, J. C. Burant, S. S. Iyengar, 
 J. Tomasi, M. Cossi, J. M. Millam, M. Klene, C. Adamo, R. Cammi, 
 J. W. Ochterski, R. L. Martin, K. Morokuma, O. Farkas, 
 J. B. Foresman, and D. J. Fox, Gaussian, Inc., Wallingford CT, 2019.
 
 ******************************************
 Gaussian 16:  ES64L-G16RevC.01  3-Jul-2019
                26-Jan-2022 
 ******************************************
 %NProcShared=2
 Will use up to    2 processors via shared memory.
 %Chk=checkpoint.chk
 ---------------------
 #n B3LYP/6-31G(d) Opt
 ---------------------
 1/18=20,19=15,26=3,38=1/1,3;
 2/9=110,12=2,17=6,18=5,40=1/2;
 3/5=1,6=6,7=1,11=2,25=1,30=1,71=1,74=-5/1,2,3;
 4//1;
 5/5=2,38=5/2;
 6/7=2,8=2,9=2,10=2,28=1/1;
 7//1,2,3,16;
 1/18=20,19=15,26=3/3(2);
 2/9=110/2;
 99//99;
 2/9=110/2;
 3/5=1,6=6,7=1,11=2,25=1,30=1,71=1,74=-5/1,2,3;
 4/5=5,16=3,69=1/1;
 5/5=2,38=5/2;
 7//1,2,3,16;
 1/18=20,19=15,26=3/3(-5);
 2/9=110/2;
 6/7=2,8=2,9=2,10=2,19=2,28=1/1;
 99/9=1/99;
 ------
 pyrene
 ------
 Symbolic Z-matrix:
 Charge =  0 Multiplicity = 1
 C                    -1.05275   2.7916    0.44293 
 C                     0.25585   2.53589   0.0213 
 C                    -1.82088   1.77823   1.02488 
 C                    -1.28423   0.4928    1.19132 
 C                     0.81116   1.25727   0.17873 
 C                     0.03787   0.23069   0.76641 
 C                     0.58687  -1.05845   0.92921 
 C                    -0.18643  -2.08504   1.51687 
 C                     1.90896  -1.32057   0.50428 
 C                     0.36886  -3.36367   1.67424 
 C                     2.44559  -2.60601   0.67067 
 C                     1.67745  -3.6194    1.25257 
 H                    -2.83239   1.99944   1.34402 
 C                    -2.0425   -0.53438   1.7735 
 C                     2.12273   0.98523  -0.23934 
 H                    -1.47402   3.78079   0.31798 
 H                     0.83223   3.33642  -0.4269 
 H                     3.45709  -2.82724   0.35149 
 H                     2.09869  -4.6086    1.37746 
 C                    -1.49799  -1.81299   1.93498 
 H                    -0.20753  -4.16421   2.12242 
 C                     2.66724  -0.29338  -0.07787 
 H                     2.72799   1.76187  -0.69158 
 H                     3.68224  -0.47889  -0.4086 
 H                    -3.05749  -0.34886   2.10424 
 H                    -2.10324  -2.58962   2.38723 
 

 GradGradGradGradGradGradGradGradGradGradGradGradGradGradGradGradGradGrad
 Berny optimization.
 Initialization pass.
                           ----------------------------
                           !    Initial Parameters    !
                           ! (Angstroms and Degrees)  !
 --------------------------                            --------------------------
 ! Name  Definition              Value          Derivative Info.                !
 --------------------------------------------------------------------------------
 ! R1    R(1,2)                  1.3984         estimate D2E/DX2                !
 ! R2    R(1,3)                  1.3984         estimate D2E/DX2                !
 ! R3    R(1,16)                 1.0824         estimate D2E/DX2                !
 ! R4    R(2,5)                  1.4029         estimate D2E/DX2                !
 ! R5    R(2,17)                 1.0835         estimate D2E/DX2                !
 ! R6    R(3,4)                  1.4029         estimate D2E/DX2                !
 ! R7    R(3,13)                 1.0835         estimate D2E/DX2                !
 ! R8    R(4,6)                  1.4132         estimate D2E/DX2                !
 ! R9    R(4,14)                 1.4032         estimate D2E/DX2                !
 ! R10   R(5,6)                  1.4132         estimate D2E/DX2                !
 ! R11   R(5,15)                 1.4032         estimate D2E/DX2                !
 ! R12   R(6,7)                  1.4106         estimate D2E/DX2                !
 ! R13   R(7,8)                  1.4132         estimate D2E/DX2                !
 ! R14   R(7,9)                  1.4132         estimate D2E/DX2                !
 ! R15   R(8,10)                 1.4029         estimate D2E/DX2                !
 ! R16   R(8,20)                 1.4032         estimate D2E/DX2                !
 ! R17   R(9,11)                 1.4029         estimate D2E/DX2                !
 ! R18   R(9,22)                 1.4032         estimate D2E/DX2                !
 ! R19   R(10,12)                1.3984         estimate D2E/DX2                !
 ! R20   R(10,21)                1.0835         estimate D2E/DX2                !
 ! R21   R(11,12)                1.3984         estimate D2E/DX2                !
 ! R22   R(11,18)                1.0835         estimate D2E/DX2                !
 ! R23   R(12,19)                1.0824         estimate D2E/DX2                !
 ! R24   R(14,20)                1.3991         estimate D2E/DX2                !
 ! R25   R(14,25)                1.0835         estimate D2E/DX2                !
 ! R26   R(15,22)                1.3991         estimate D2E/DX2                !
 ! R27   R(15,23)                1.0835         estimate D2E/DX2                !
 ! R28   R(20,26)                1.0835         estimate D2E/DX2                !
 ! R29   R(22,24)                1.0835         estimate D2E/DX2                !
 ! A1    A(2,1,3)              120.4616         estimate D2E/DX2                !
 ! A2    A(2,1,16)             119.7692         estimate D2E/DX2                !
 ! A3    A(3,1,16)             119.7692         estimate D2E/DX2                !
 ! A4    A(1,2,5)              120.2147         estimate D2E/DX2                !
 ! A5    A(1,2,17)             119.1709         estimate D2E/DX2                !
 ! A6    A(5,2,17)             120.6144         estimate D2E/DX2                !
 ! A7    A(1,3,4)              120.2146         estimate D2E/DX2                !
 ! A8    A(1,3,13)             119.1711         estimate D2E/DX2                !
 ! A9    A(4,3,13)             120.6143         estimate D2E/DX2                !
 ! A10   A(3,4,6)              119.4817         estimate D2E/DX2                !
 ! A11   A(3,4,14)             120.8805         estimate D2E/DX2                !
 ! A12   A(6,4,14)             119.6378         estimate D2E/DX2                !
 ! A13   A(2,5,6)              119.4817         estimate D2E/DX2                !
 ! A14   A(2,5,15)             120.8808         estimate D2E/DX2                !
 ! A15   A(6,5,15)             119.6375         estimate D2E/DX2                !
 ! A16   A(4,6,5)              120.1458         estimate D2E/DX2                !
 ! A17   A(4,6,7)              119.9273         estimate D2E/DX2                !
 ! A18   A(5,6,7)              119.9269         estimate D2E/DX2                !
 ! A19   A(6,7,8)              119.9269         estimate D2E/DX2                !
 ! A20   A(6,7,9)              119.9275         estimate D2E/DX2                !
 ! A21   A(8,7,9)              120.1456         estimate D2E/DX2                !
 ! A22   A(7,8,10)             119.4815         estimate D2E/DX2                !
 ! A23   A(7,8,20)             119.6376         estimate D2E/DX2                !
 ! A24   A(10,8,20)            120.8809         estimate D2E/DX2                !
 ! A25   A(7,9,11)             119.4819         estimate D2E/DX2                !
 ! A26   A(7,9,22)             119.6375         estimate D2E/DX2                !
 ! A27   A(11,9,22)            120.8806         estimate D2E/DX2                !
 ! A28   A(8,10,12)            120.2152         estimate D2E/DX2                !
 ! A29   A(8,10,21)            120.6143         estimate D2E/DX2                !
 ! A30   A(12,10,21)           119.1706         estimate D2E/DX2                !
 ! A31   A(9,11,12)            120.215          estimate D2E/DX2                !
 ! A32   A(9,11,18)            120.6147         estimate D2E/DX2                !
 ! A33   A(12,11,18)           119.1703         estimate D2E/DX2                !
 ! A34   A(10,12,11)           120.4609         estimate D2E/DX2                !
 ! A35   A(10,12,19)           119.7693         estimate D2E/DX2                !
 ! A36   A(11,12,19)           119.7698         estimate D2E/DX2                !
 ! A37   A(4,14,20)            120.4353         estimate D2E/DX2                !
 ! A38   A(4,14,25)            120.4982         estimate D2E/DX2                !
 ! A39   A(20,14,25)           119.0665         estimate D2E/DX2                !
 ! A40   A(5,15,22)            120.4354         estimate D2E/DX2                !
 ! A41   A(5,15,23)            120.4983         estimate D2E/DX2                !
 ! A42   A(22,15,23)           119.0663         estimate D2E/DX2                !
 ! A43   A(8,20,14)            120.4352         estimate D2E/DX2                !
 ! A44   A(8,20,26)            120.4984         estimate D2E/DX2                !
 ! A45   A(14,20,26)           119.0665         estimate D2E/DX2                !
 ! A46   A(9,22,15)            120.4352         estimate D2E/DX2                !
 ! A47   A(9,22,24)            120.4985         estimate D2E/DX2                !
 ! A48   A(15,22,24)           119.0663         estimate D2E/DX2                !
 ! D1    D(3,1,2,5)              0.0007         estimate D2E/DX2                !
 ! D2    D(3,1,2,17)          -179.9993         estimate D2E/DX2                !
 ! D3    D(16,1,2,5)          -180.0            estimate D2E/DX2                !
 ! D4    D(16,1,2,17)            0.0            estimate D2E/DX2                !
 ! D5    D(2,1,3,4)             -0.0011         estimate D2E/DX2                !
 ! D6    D(2,1,3,13)           179.9998         estimate D2E/DX2                !
 ! D7    D(16,1,3,4)           179.9996         estimate D2E/DX2                !
 ! D8    D(16,1,3,13)            0.0005         estimate D2E/DX2                !
 ! D9    D(1,2,5,6)              0.0001         estimate D2E/DX2                !
 ! D10   D(1,2,5,15)           179.9996         estimate D2E/DX2                !
 ! D11   D(17,2,5,6)          -179.9998         estimate D2E/DX2                !
 ! D12   D(17,2,5,15)           -0.0004         estimate D2E/DX2                !
 ! D13   D(1,3,4,6)              0.0006         estimate D2E/DX2                !
 ! D14   D(1,3,4,14)          -179.9996         estimate D2E/DX2                !
 ! D15   D(13,3,4,6)           179.9997         estimate D2E/DX2                !
 ! D16   D(13,3,4,14)           -0.0006         estimate D2E/DX2                !
 ! D17   D(3,4,6,5)              0.0003         estimate D2E/DX2                !
 ! D18   D(3,4,6,7)           -179.9986         estimate D2E/DX2                !
 ! D19   D(14,4,6,5)          -179.9995         estimate D2E/DX2                !
 ! D20   D(14,4,6,7)             0.0016         estimate D2E/DX2                !
 ! D21   D(3,4,14,20)          179.9989         estimate D2E/DX2                !
 ! D22   D(3,4,14,25)           -0.0008         estimate D2E/DX2                !
 ! D23   D(6,4,14,20)           -0.0013         estimate D2E/DX2                !
 ! D24   D(6,4,14,25)          179.999          estimate D2E/DX2                !
 ! D25   D(2,5,6,4)             -0.0006         estimate D2E/DX2                !
 ! D26   D(2,5,6,7)            179.9982         estimate D2E/DX2                !
 ! D27   D(15,5,6,4)           179.9999         estimate D2E/DX2                !
 ! D28   D(15,5,6,7)            -0.0012         estimate D2E/DX2                !
 ! D29   D(2,5,15,22)         -179.9981         estimate D2E/DX2                !
 ! D30   D(2,5,15,23)            0.0015         estimate D2E/DX2                !
 ! D31   D(6,5,15,22)            0.0013         estimate D2E/DX2                !
 ! D32   D(6,5,15,23)         -179.999          estimate D2E/DX2                !
 ! D33   D(4,6,7,8)              0.0            estimate D2E/DX2                !
 ! D34   D(4,6,7,9)            179.9989         estimate D2E/DX2                !
 ! D35   D(5,6,7,8)           -179.9989         estimate D2E/DX2                !
 ! D36   D(5,6,7,9)              0.0            estimate D2E/DX2                !
 ! D37   D(6,7,8,10)           179.9988         estimate D2E/DX2                !
 ! D38   D(6,7,8,20)            -0.0019         estimate D2E/DX2                !
 ! D39   D(9,7,8,10)            -0.0001         estimate D2E/DX2                !
 ! D40   D(9,7,8,20)           179.9992         estimate D2E/DX2                !
 ! D41   D(6,7,9,11)          -179.9988         estimate D2E/DX2                !
 ! D42   D(6,7,9,22)             0.0011         estimate D2E/DX2                !
 ! D43   D(8,7,9,11)             0.0001         estimate D2E/DX2                !
 ! D44   D(8,7,9,22)           180.0            estimate D2E/DX2                !
 ! D45   D(7,8,10,12)           -0.0004         estimate D2E/DX2                !
 ! D46   D(7,8,10,21)         -179.9999         estimate D2E/DX2                !
 ! D47   D(20,8,10,12)        -179.9997         estimate D2E/DX2                !
 ! D48   D(20,8,10,21)           0.0008         estimate D2E/DX2                !
 ! D49   D(7,8,20,14)            0.0022         estimate D2E/DX2                !
 ! D50   D(7,8,20,26)         -179.999          estimate D2E/DX2                !
 ! D51   D(10,8,20,14)        -179.9984         estimate D2E/DX2                !
 ! D52   D(10,8,20,26)           0.0004         estimate D2E/DX2                !
 ! D53   D(7,9,11,12)            0.0005         estimate D2E/DX2                !
 ! D54   D(7,9,11,18)          179.9988         estimate D2E/DX2                !
 ! D55   D(22,9,11,12)        -179.9994         estimate D2E/DX2                !
 ! D56   D(22,9,11,18)          -0.0011         estimate D2E/DX2                !
 ! D57   D(7,9,22,15)           -0.001          estimate D2E/DX2                !
 ! D58   D(7,9,22,24)          179.999          estimate D2E/DX2                !
 ! D59   D(11,9,22,15)         179.9989         estimate D2E/DX2                !
 ! D60   D(11,9,22,24)          -0.0011         estimate D2E/DX2                !
 ! D61   D(8,10,12,11)           0.001          estimate D2E/DX2                !
 ! D62   D(8,10,12,19)        -179.9989         estimate D2E/DX2                !
 ! D63   D(21,10,12,11)       -179.9995         estimate D2E/DX2                !
 ! D64   D(21,10,12,19)          0.0006         estimate D2E/DX2                !
 ! D65   D(9,11,12,10)          -0.001          estimate D2E/DX2                !
 ! D66   D(9,11,12,19)         179.9989         estimate D2E/DX2                !
 ! D67   D(18,11,12,10)       -179.9993         estimate D2E/DX2                !
 ! D68   D(18,11,12,19)          0.0006         estimate D2E/DX2                !
 ! D69   D(4,14,20,8)           -0.0006         estimate D2E/DX2                !
 ! D70   D(4,14,20,26)        -179.9995         estimate D2E/DX2                !
 ! D71   D(25,14,20,8)         179.9991         estimate D2E/DX2                !
 ! D72   D(25,14,20,26)          0.0002         estimate D2E/DX2                !
 ! D73   D(5,15,22,9)           -0.0002         estimate D2E/DX2                !
 ! D74   D(5,15,22,24)         179.9998         estimate D2E/DX2                !
 ! D75   D(23,15,22,9)        -179.9999         estimate D2E/DX2                !
 ! D76   D(23,15,22,24)          0.0002         estimate D2E/DX2                !
 --------------------------------------------------------------------------------
 Trust Radius=3.00D-01 FncErr=1.00D-07 GrdErr=1.00D-06 EigMax=2.50D+02 EigMin=1.00D-04
 Number of steps in this run=    156 maximum allowed number of steps=    156.
 GradGradGradGradGradGradGradGradGradGradGradGradGradGradGradGradGradGrad

                          Input orientation:                          
 ---------------------------------------------------------------------
 Center     Atomic      Atomic             Coordinates (Angstroms)
 Number     Number       Type             X           Y           Z
 ---------------------------------------------------------------------
      1          6           0       -1.052750    2.791600    0.442930
      2          6           0        0.255850    2.535890    0.021300
      3          6           0       -1.820880    1.778230    1.024880
      4          6           0       -1.284230    0.492800    1.191320
      5          6           0        0.811160    1.257270    0.178730
      6          6           0        0.037870    0.230690    0.766410
      7          6           0        0.586870   -1.058450    0.929210
      8          6           0       -0.186430   -2.085040    1.516870
      9          6           0        1.908960   -1.320570    0.504280
     10          6           0        0.368860   -3.363670    1.674240
     11          6           0        2.445590   -2.606010    0.670670
     12          6           0        1.677450   -3.619400    1.252570
     13          1           0       -2.832390    1.999440    1.344020
     14          6           0       -2.042500   -0.534380    1.773500
     15          6           0        2.122730    0.985230   -0.239340
     16          1           0       -1.474020    3.780790    0.317980
     17          1           0        0.832230    3.336420   -0.426900
     18          1           0        3.457090   -2.827240    0.351490
     19          1           0        2.098690   -4.608600    1.377460
     20          6           0       -1.497990   -1.812990    1.934980
     21          1           0       -0.207530   -4.164210    2.122420
     22          6           0        2.667240   -0.293380   -0.077870
     23          1           0        2.727990    1.761870   -0.691580
     24          1           0        3.682240   -0.478890   -0.408600
     25          1           0       -3.057490   -0.348860    2.104240
     26          1           0       -2.103240   -2.589620    2.387230
 ---------------------------------------------------------------------
                    Distance matrix (angstroms):
                    1          2          3          4          5
     1  C    0.000000
     2  C    1.398425   0.000000
     3  C    1.398431   2.427762   0.000000
     4  C    2.428611   2.813363   1.402863   0.000000
     5  C    2.428607   1.402862   2.813362   2.449574   0.000000
     6  C    2.802205   2.432417   2.432414   1.413223   1.413227
     7  C    4.212803   3.721983   3.721984   2.444605   2.444603
     8  C    5.068084   4.877021   4.223545   2.820710   3.735886
     9  C    5.068080   4.223544   4.877017   3.735880   2.820710
    10  C    6.436183   6.127788   5.626346   4.223539   4.877014
    11  C    6.436182   5.626347   6.127788   4.877013   4.223541
    12  C    7.015015   6.436192   6.436192   5.068085   5.068087
    13  H    2.146299   3.402145   1.083484   2.165659   3.896688
    14  C    3.716472   4.216536   2.440843   1.403213   3.727825
    15  C    3.716469   2.440844   4.216534   3.727821   1.403212
    16  H    1.082394   2.151800   2.151805   3.407289   3.407285
    17  H    2.146295   1.083488   3.402148   3.896693   2.165663
    18  H    7.205441   6.254608   7.037100   5.848769   4.869704
    19  H    8.097400   7.501931   7.501929   6.123976   6.123979
    20  C    4.860730   5.064670   3.718790   2.432158   4.224108
    21  H    7.205441   7.037099   6.254605   4.869699   5.848770
    22  C    4.860726   3.718791   5.064666   4.224102   2.432158
    23  H    4.079394   2.686779   4.861967   4.610180   2.164786
    24  H    5.817331   4.584088   6.118316   5.307518   3.406216
    25  H    4.079390   4.861959   2.686770   2.164778   4.610173
    26  H    5.817333   6.118315   4.584085   3.406214   5.307519
                    6          7          8          9         10
     6  C    0.000000
     7  C    1.410598   0.000000
     8  C    2.444608   1.413232   0.000000
     9  C    2.444606   1.413221   2.449574   0.000000
    10  C    3.721980   2.432414   1.402857   2.813356   0.000000
    11  C    3.721982   2.432411   2.813360   1.402859   2.427758
    12  C    4.212810   2.802212   2.428614   2.428612   1.398432
    13  H    3.420600   4.605876   4.869698   5.848763   6.254598
    14  C    2.434646   2.810883   2.432160   4.224103   3.718789
    15  C    2.434647   2.810872   4.224104   2.432156   5.064660
    16  H    3.884599   5.295197   6.123985   6.123980   7.501930
    17  H    3.420607   4.605879   5.848772   4.869702   7.037095
    18  H    4.605883   3.420605   3.896692   2.165665   3.402145
    19  H    5.295195   3.884597   3.407281   3.407284   2.151799
    20  C    2.810881   2.434655   1.403217   3.727826   2.440845
    21  H    4.605880   3.420609   2.165660   3.896690   1.083492
    22  C    2.810880   2.434642   3.727824   1.403213   4.216529
    23  H    3.421548   3.894298   5.307524   3.406219   6.118313
    24  H    3.894302   3.421541   4.610180   2.164786   4.861961
    25  H    3.421538   3.894300   3.406216   5.307515   4.584087
    26  H    3.894298   3.421549   2.164784   4.610178   2.686780
                   11         12         13         14         15
    11  C    0.000000
    12  C    1.398430   0.000000
    13  H    7.037091   7.205441   0.000000
    14  C    5.064666   4.860735   2.688610   0.000000
    15  C    3.718785   4.860729   5.299893   4.869279   0.000000
    16  H    7.501930   8.097409   2.463967   4.589379   4.589376
    17  H    6.254603   7.205446   4.284053   5.299899   2.688617
    18  H    1.083490   2.146295   7.989963   6.125750   4.082220
    19  H    2.151804   1.082385   8.245172   5.822849   5.822848
    20  C    4.216537   3.716479   4.082215   1.399075   5.066292
    21  H    3.402148   2.146301   6.744359   4.082221   6.125745
    22  C    2.440840   3.716472   6.125743   5.066291   1.399074
    23  H    4.584087   5.817338   5.926039   5.840116   1.083527
    24  H    2.686776   4.079396   7.187086   6.126768   2.145779
    25  H    6.118312   5.817339   2.478531   1.083518   5.840106
    26  H    4.861965   4.079402   4.762291   2.145778   6.126765
                   16         17         18         19         20
    16  H    0.000000
    17  H    2.463960   0.000000
    18  H    8.245182   6.744367   0.000000
    19  H    9.179794   8.245179   2.463962   0.000000
    20  C    5.822855   6.125751   5.299902   4.589376   0.000000
    21  H    8.245182   7.989968   4.284054   2.463960   2.688616
    22  C    5.822851   4.082221   2.688617   4.589374   4.869283
    23  H    4.769920   2.478542   4.762301   6.727543   6.126773
    24  H    6.727541   4.762298   2.478543   4.769921   5.840118
    25  H    4.769917   5.926034   7.187089   6.727539   2.145779
    26  H    6.727543   7.187090   5.926042   4.769919   1.083518
                   21         22         23         24         25
    21  H    0.000000
    22  C    5.299897   0.000000
    23  H    7.187092   2.145783   0.000000
    24  H    5.926041   1.083523   2.451872   0.000000
    25  H    4.762300   6.126762   6.763399   7.194111   0.000000
    26  H    2.478543   5.840113   7.194117   6.763403   2.451873
                   26
    26  H    0.000000
 Stoichiometry    C16H10
 Framework group  C1[X(C16H10)]
 Deg. of freedom    72
 Full point group                 C1      NOp   1
 Largest Abelian subgroup         C1      NOp   1
 Largest concise Abelian subgroup C1      NOp   1
                         Standard orientation:                         
 ---------------------------------------------------------------------
 Center     Atomic      Atomic             Coordinates (Angstroms)
 Number     Number       Type             X           Y           Z
 ---------------------------------------------------------------------
      1          6           0       -3.507504   -0.000003    0.000046
      2          6           0       -2.813175   -1.213881    0.000022
      3          6           0       -2.813174    1.213881    0.000020
      4          6           0       -1.410353    1.224787   -0.000009
      5          6           0       -1.410356   -1.224787   -0.000014
      6          6           0       -0.705300    0.000002   -0.000023
      7          6           0        0.705298   -0.000004   -0.000021
      8          6           0        1.410357    1.224788   -0.000006
      9          6           0        1.410355   -1.224785   -0.000011
     10          6           0        2.813171    1.213878    0.000022
     11          6           0        2.813171   -1.213880    0.000016
     12          6           0        3.507510   -0.000002    0.000043
     13          1           0       -3.372177    2.142026    0.000036
     14          6           0       -0.699538    2.434641   -0.000028
     15          6           0       -0.699536   -2.434638   -0.000029
     16          1           0       -4.589899   -0.000003    0.000074
     17          1           0       -3.372183   -2.142028    0.000032
     18          1           0        3.372184   -2.142027    0.000044
     19          1           0        4.589895    0.000002    0.000082
     20          6           0        0.699537    2.434644   -0.000033
     21          1           0        3.372182    2.142028    0.000036
     22          6           0        0.699538   -2.434639   -0.000025
     23          1           0       -1.225937   -3.381703   -0.000038
     24          1           0        1.225935   -3.381701   -0.000034
     25          1           0       -1.225940    3.381696   -0.000033
     26          1           0        1.225933    3.381702   -0.000039
 ---------------------------------------------------------------------
 Rotational constants (GHZ):           1.0275058           0.5612819           0.3629940
 Standard basis: 6-31G(d) (6D, 7F)
 There are   260 symmetry adapted cartesian basis functions of A   symmetry.
 There are   260 symmetry adapted basis functions of A   symmetry.
   260 basis functions,   488 primitive gaussians,   260 cartesian basis functions
    53 alpha electrons       53 beta electrons
       nuclear repulsion energy       971.3392464286 Hartrees.
 NAtoms=   26 NActive=   26 NUniq=   26 SFac= 1.00D+00 NAtFMM=   60 NAOKFM=F Big=F
 Integral buffers will be    131072 words long.
 Raffenetti 2 integral format.
 Two-electron integral symmetry is turned on.
 One-electron integrals computed using PRISM.
 NBasis=   260 RedAO= T EigKep=  1.52D-04  NBF=   260
 NBsUse=   260 1.00D-06 EigRej= -1.00D+00 NBFU=   260
 ExpMin= 1.61D-01 ExpMax= 3.05D+03 ExpMxC= 4.57D+02 IAcc=3 IRadAn=         5 AccDes= 0.00D+00
 Harris functional with IExCor=  402 and IRadAn=       5 diagonalized for initial guess.
 HarFok:  IExCor=  402 AccDes= 0.00D+00 IRadAn=         5 IDoV= 1 UseB2=F ITyADJ=14
 ICtDFT=  3500011 ScaDFX=  1.000000  1.000000  1.000000  1.000000
 FoFCou: FMM=F IPFlag=           0 FMFlag=      100000 FMFlg1=           0
         NFxFlg=           0 DoJE=T BraDBF=F KetDBF=T FulRan=T
         wScrn=  0.000000 ICntrl=       500 IOpCl=  0 I1Cent=   200000004 NGrid=           0
         NMat0=    1 NMatS0=      1 NMatT0=    0 NMatD0=    1 NMtDS0=    0 NMtDT0=    0
 Petite list used in FoFCou.
 Requested convergence on RMS density matrix=1.00D-08 within 128 cycles.
 Requested convergence on MAX density matrix=1.00D-06.
 Requested convergence on             energy=1.00D-06.
 No special actions if energy rises.
 Integral accuracy reduced to 1.0D-05 until final iterations.
 Initial convergence to 1.0D-05 achieved.  Increase integral accuracy.
 SCF Done:  E(RB3LYP) =  -615.765782255     A.U. after   13 cycles
            NFock= 13  Conv=0.99D-08     -V/T= 2.0092

 **********************************************************************

            Population analysis using the SCF Density.

 **********************************************************************

 Orbital symmetries:
       Occupied  (A) (A) (A) (A) (A) (A) (A) (A) (A) (A) (A) (A)
                 (A) (A) (A) (A) (A) (A) (A) (A) (A) (A) (A) (A)
                 (A) (A) (A) (A) (A) (A) (A) (A) (A) (A) (A) (A)
                 (A) (A) (A) (A) (A) (A) (A) (A) (A) (A) (A) (A)
                 (A) (A) (A) (A) (A)
       Virtual   (A) (A) (A) (A) (A) (A) (A) (A) (A) (A) (A) (A)
                 (A) (A) (A) (A) (A) (A) (A) (A) (A) (A) (A) (A)
                 (A) (A) (A) (A) (A) (A) (A) (A) (A) (A) (A) (A)
                 (A) (A) (A) (A) (A) (A) (A) (A) (A) (A) (A) (A)
                 (A) (A) (A) (A) (A) (A) (A) (A) (A) (A) (A) (A)
                 (A) (A) (A) (A) (A) (A) (A) (A) (A) (A) (A) (A)
                 (A) (A) (A) (A) (A) (A) (A) (A) (A) (A) (A) (A)
                 (A) (A) (A) (A) (A) (A) (A) (A) (A) (A) (A) (A)
                 (A) (A) (A) (A) (A) (A) (A) (A) (A) (A) (A) (A)
                 (A) (A) (A) (A) (A) (A) (A) (A) (A) (A) (A) (A)
                 (A) (A) (A) (A) (A) (A) (A) (A) (A) (A) (A) (A)
                 (A) (A) (A) (A) (A) (A) (A) (A) (A) (A) (A) (A)
                 (A) (A) (A) (A) (A) (A) (A) (A) (A) (A) (A) (A)
                 (A) (A) (A) (A) (A) (A) (A) (A) (A) (A) (A) (A)
                 (A) (A) (A) (A) (A) (A) (A) (A) (A) (A) (A) (A)
                 (A) (A) (A) (A) (A) (A) (A) (A) (A) (A) (A) (A)
                 (A) (A) (A) (A) (A) (A) (A) (A) (A) (A) (A) (A)
                 (A) (A) (A)
 The electronic state is 1-A.
 Alpha  occ. eigenvalues --  -10.19330 -10.19322 -10.19310 -10.19310 -10.19253
 Alpha  occ. eigenvalues --  -10.19211 -10.19041 -10.19041 -10.18988 -10.18987
 Alpha  occ. eigenvalues --  -10.18955 -10.18955 -10.18832 -10.18832 -10.18820
 Alpha  occ. eigenvalues --  -10.18820  -0.89502  -0.84925  -0.83079  -0.79192
 Alpha  occ. eigenvalues --   -0.76820  -0.74377  -0.72946  -0.70203  -0.62750
 Alpha  occ. eigenvalues --   -0.62734  -0.62413  -0.60684  -0.54172  -0.52258
 Alpha  occ. eigenvalues --   -0.51656  -0.49974  -0.49198  -0.46855  -0.43550
 Alpha  occ. eigenvalues --   -0.43359  -0.42882  -0.41264  -0.41227  -0.40498
 Alpha  occ. eigenvalues --   -0.38977  -0.38810  -0.36718  -0.36005  -0.35935
 Alpha  occ. eigenvalues --   -0.34028  -0.32429  -0.32252  -0.29271  -0.27429
 Alpha  occ. eigenvalues --   -0.24939  -0.23011  -0.18929
 Alpha virt. eigenvalues --   -0.05821  -0.01848  -0.00568   0.02595   0.05971
 Alpha virt. eigenvalues --    0.09630   0.10958   0.11582   0.11984   0.13259
 Alpha virt. eigenvalues --    0.15073   0.15411   0.15917   0.16258   0.18655
 Alpha virt. eigenvalues --    0.19606   0.20107   0.25239   0.25455   0.26009
 Alpha virt. eigenvalues --    0.26153   0.27920   0.29942   0.31441   0.32232
 Alpha virt. eigenvalues --    0.32478   0.35024   0.35283   0.35893   0.46466
 Alpha virt. eigenvalues --    0.46496   0.48127   0.50338   0.50430   0.50673
 Alpha virt. eigenvalues --    0.51778   0.52999   0.54038   0.54537   0.54862
 Alpha virt. eigenvalues --    0.55659   0.56144   0.57037   0.57401   0.57786
 Alpha virt. eigenvalues --    0.59232   0.59353   0.60459   0.60995   0.61216
 Alpha virt. eigenvalues --    0.61364   0.61739   0.61909   0.61981   0.62306
 Alpha virt. eigenvalues --    0.62813   0.63793   0.66383   0.66531   0.68428
 Alpha virt. eigenvalues --    0.68548   0.71254   0.71655   0.76321   0.80667
 Alpha virt. eigenvalues --    0.81264   0.82419   0.82548   0.83172   0.83590
 Alpha virt. eigenvalues --    0.84924   0.85584   0.85923   0.86899   0.88098
 Alpha virt. eigenvalues --    0.88784   0.91324   0.94085   0.94145   0.95010
 Alpha virt. eigenvalues --    0.96373   0.96792   0.97786   0.99473   0.99908
 Alpha virt. eigenvalues --    1.03769   1.05777   1.06196   1.08201   1.11359
 Alpha virt. eigenvalues --    1.11768   1.17274   1.18768   1.21664   1.22044
 Alpha virt. eigenvalues --    1.22348   1.23341   1.24987   1.26511   1.26535
 Alpha virt. eigenvalues --    1.29668   1.30344   1.32724   1.38683   1.39218
 Alpha virt. eigenvalues --    1.42575   1.45707   1.46658   1.46992   1.47065
 Alpha virt. eigenvalues --    1.47245   1.47740   1.48860   1.49367   1.49536
 Alpha virt. eigenvalues --    1.50667   1.52634   1.56808   1.57332   1.62520
 Alpha virt. eigenvalues --    1.71935   1.74076   1.75865   1.77278   1.82975
 Alpha virt. eigenvalues --    1.83427   1.83974   1.85479   1.89446   1.89557
 Alpha virt. eigenvalues --    1.91541   1.92454   1.93143   1.93790   1.93822
 Alpha virt. eigenvalues --    1.96055   1.96686   1.97280   2.00211   2.02191
 Alpha virt. eigenvalues --    2.02490   2.02858   2.06651   2.09423   2.10854
 Alpha virt. eigenvalues --    2.11853   2.15320   2.16662   2.22139   2.22273
 Alpha virt. eigenvalues --    2.23101   2.24155   2.26996   2.29238   2.29818
 Alpha virt. eigenvalues --    2.30432   2.31944   2.33645   2.34492   2.37744
 Alpha virt. eigenvalues --    2.38439   2.40089   2.40135   2.40258   2.43639
 Alpha virt. eigenvalues --    2.51222   2.60655   2.61301   2.63201   2.65880
 Alpha virt. eigenvalues --    2.67221   2.69933   2.71702   2.71815   2.72144
 Alpha virt. eigenvalues --    2.75167   2.76901   2.84459   2.84605   2.88277
 Alpha virt. eigenvalues --    2.88752   2.91963   2.92044   2.94866   3.03405
 Alpha virt. eigenvalues --    3.07222   3.07227   3.26912   3.36779   3.54353
 Alpha virt. eigenvalues --    3.57874   4.09377   4.09595   4.09971   4.10300
 Alpha virt. eigenvalues --    4.13909   4.14103   4.14739   4.15390   4.24568
 Alpha virt. eigenvalues --    4.32974   4.34823   4.40640   4.43216   4.57798
 Alpha virt. eigenvalues --    4.66539   4.95665
          Condensed to atoms (all electrons):
               1          2          3          4          5          6
     1  C    4.936385   0.464823   0.464821   0.016472   0.016472  -0.054631
     2  C    0.464823   5.173004  -0.015592  -0.068720   0.449862  -0.012708
     3  C    0.464821  -0.015592   5.173005   0.449863  -0.068719  -0.012707
     4  C    0.016472  -0.068720   0.449863   4.828007  -0.058690   0.393758
     5  C    0.016472   0.449862  -0.068719  -0.058690   4.828003   0.393761
     6  C   -0.054631  -0.012708  -0.012707   0.393758   0.393761   5.265209
     7  C   -0.002693   0.020404   0.020404  -0.056411  -0.056408   0.233965
     8  C    0.000045  -0.000162  -0.000564  -0.049370   0.014783  -0.056408
     9  C    0.000045  -0.000564  -0.000162   0.014784  -0.049370  -0.056411
    10  C    0.000001  -0.000001  -0.000015  -0.000564  -0.000162   0.020404
    11  C    0.000001  -0.000015  -0.000001  -0.000162  -0.000564   0.020404
    12  C   -0.000000   0.000001   0.000001   0.000045   0.000045  -0.002693
    13  H   -0.044266   0.004327   0.356483  -0.040425   0.000782   0.003662
    14  C    0.008981  -0.000428  -0.111382   0.391744   0.017423   0.012312
    15  C    0.008981  -0.111383  -0.000428   0.017424   0.391743   0.012312
    16  H    0.353924  -0.034916  -0.034916   0.001811   0.001811   0.001795
    17  H   -0.044267   0.356483   0.004327   0.000782  -0.040425   0.003662
    18  H   -0.000000  -0.000000  -0.000000   0.000003  -0.000001  -0.000172
    19  H    0.000000  -0.000000  -0.000000  -0.000001  -0.000001   0.000031
    20  C   -0.000430   0.000082   0.009877   0.018787  -0.001863  -0.087829
    21  H   -0.000000  -0.000000  -0.000000  -0.000001   0.000003  -0.000172
    22  C   -0.000430   0.009877   0.000082  -0.001864   0.018787  -0.087829
    23  H    0.000258  -0.007981   0.000006  -0.000210  -0.037090   0.003382
    24  H    0.000003  -0.000230  -0.000000   0.000026   0.001775   0.001409
    25  H    0.000258   0.000006  -0.007981  -0.037090  -0.000210   0.003382
    26  H    0.000003  -0.000000  -0.000230   0.001776   0.000026   0.001409
               7          8          9         10         11         12
     1  C   -0.002693   0.000045   0.000045   0.000001   0.000001  -0.000000
     2  C    0.020404  -0.000162  -0.000564  -0.000001  -0.000015   0.000001
     3  C    0.020404  -0.000564  -0.000162  -0.000015  -0.000001   0.000001
     4  C   -0.056411  -0.049370   0.014784  -0.000564  -0.000162   0.000045
     5  C   -0.056408   0.014783  -0.049370  -0.000162  -0.000564   0.000045
     6  C    0.233965  -0.056408  -0.056411   0.020404   0.020404  -0.002693
     7  C    5.265211   0.393759   0.393760  -0.012706  -0.012706  -0.054631
     8  C    0.393759   4.827999  -0.058689   0.449863  -0.068720   0.016472
     9  C    0.393760  -0.058689   4.828004  -0.068721   0.449859   0.016472
    10  C   -0.012706   0.449863  -0.068721   5.173013  -0.015590   0.464820
    11  C   -0.012706  -0.068720   0.449859  -0.015590   5.173012   0.464822
    12  C   -0.054631   0.016472   0.016472   0.464820   0.464822   4.936384
    13  H   -0.000172  -0.000001   0.000003  -0.000000  -0.000000  -0.000000
    14  C   -0.087829   0.018787  -0.001864   0.009877   0.000082  -0.000430
    15  C   -0.087830  -0.001863   0.018787   0.000082   0.009877  -0.000430
    16  H    0.000031  -0.000001  -0.000001  -0.000000  -0.000000   0.000000
    17  H   -0.000172   0.000003  -0.000001  -0.000000  -0.000000  -0.000000
    18  H    0.003662   0.000782  -0.040425   0.004327   0.356482  -0.044267
    19  H    0.001795   0.001811   0.001811  -0.034916  -0.034916   0.353926
    20  C    0.012311   0.391744   0.017423  -0.111383  -0.000428   0.008981
    21  H    0.003662  -0.040425   0.000782   0.356481   0.004327  -0.044266
    22  C    0.012312   0.017423   0.391745  -0.000428  -0.111384   0.008981
    23  H    0.001409   0.000026   0.001775  -0.000000  -0.000230   0.000003
    24  H    0.003382  -0.000210  -0.037090   0.000006  -0.007981   0.000258
    25  H    0.001409   0.001776   0.000026  -0.000230  -0.000000   0.000003
    26  H    0.003382  -0.037090  -0.000210  -0.007981   0.000006   0.000258
              13         14         15         16         17         18
     1  C   -0.044266   0.008981   0.008981   0.353924  -0.044267  -0.000000
     2  C    0.004327  -0.000428  -0.111383  -0.034916   0.356483  -0.000000
     3  C    0.356483  -0.111382  -0.000428  -0.034916   0.004327  -0.000000
     4  C   -0.040425   0.391744   0.017424   0.001811   0.000782   0.000003
     5  C    0.000782   0.017423   0.391743   0.001811  -0.040425  -0.000001
     6  C    0.003662   0.012312   0.012312   0.001795   0.003662  -0.000172
     7  C   -0.000172  -0.087829  -0.087830   0.000031  -0.000172   0.003662
     8  C   -0.000001   0.018787  -0.001863  -0.000001   0.000003   0.000782
     9  C    0.000003  -0.001864   0.018787  -0.000001  -0.000001  -0.040425
    10  C   -0.000000   0.009877   0.000082  -0.000000  -0.000000   0.004327
    11  C   -0.000000   0.000082   0.009877  -0.000000  -0.000000   0.356482
    12  C   -0.000000  -0.000430  -0.000430   0.000000  -0.000000  -0.044267
    13  H    0.596480  -0.007605   0.000012  -0.004637  -0.000197   0.000000
    14  C   -0.007605   5.221929  -0.000223  -0.000247   0.000012  -0.000000
    15  C    0.000012  -0.000223   5.221934  -0.000247  -0.007605   0.000314
    16  H   -0.004637  -0.000247  -0.000247   0.591988  -0.004637  -0.000000
    17  H   -0.000197   0.000012  -0.007605  -0.004637   0.596481   0.000000
    18  H    0.000000  -0.000000   0.000314  -0.000000   0.000000   0.596481
    19  H   -0.000000   0.000003   0.000003   0.000000  -0.000000  -0.004637
    20  C    0.000314   0.426300  -0.000007   0.000003  -0.000000   0.000012
    21  H    0.000000   0.000314  -0.000000  -0.000000   0.000000  -0.000197
    22  C   -0.000000  -0.000007   0.426300   0.000003   0.000314  -0.007605
    23  H   -0.000000   0.000002   0.353416  -0.000011   0.006077  -0.000011
    24  H    0.000000  -0.000000  -0.037541  -0.000000  -0.000011   0.006076
    25  H    0.006077   0.353417   0.000002  -0.000011  -0.000000   0.000000
    26  H   -0.000011  -0.037541  -0.000000  -0.000000   0.000000  -0.000000
              19         20         21         22         23         24
     1  C    0.000000  -0.000430  -0.000000  -0.000430   0.000258   0.000003
     2  C   -0.000000   0.000082  -0.000000   0.009877  -0.007981  -0.000230
     3  C   -0.000000   0.009877  -0.000000   0.000082   0.000006  -0.000000
     4  C   -0.000001   0.018787  -0.000001  -0.001864  -0.000210   0.000026
     5  C   -0.000001  -0.001863   0.000003   0.018787  -0.037090   0.001775
     6  C    0.000031  -0.087829  -0.000172  -0.087829   0.003382   0.001409
     7  C    0.001795   0.012311   0.003662   0.012312   0.001409   0.003382
     8  C    0.001811   0.391744  -0.040425   0.017423   0.000026  -0.000210
     9  C    0.001811   0.017423   0.000782   0.391745   0.001775  -0.037090
    10  C   -0.034916  -0.111383   0.356481  -0.000428  -0.000000   0.000006
    11  C   -0.034916  -0.000428   0.004327  -0.111384  -0.000230  -0.007981
    12  C    0.353926   0.008981  -0.044266   0.008981   0.000003   0.000258
    13  H   -0.000000   0.000314   0.000000  -0.000000  -0.000000   0.000000
    14  C    0.000003   0.426300   0.000314  -0.000007   0.000002  -0.000000
    15  C    0.000003  -0.000007  -0.000000   0.426300   0.353416  -0.037541
    16  H    0.000000   0.000003  -0.000000   0.000003  -0.000011  -0.000000
    17  H   -0.000000  -0.000000   0.000000   0.000314   0.006077  -0.000011
    18  H   -0.004637   0.000012  -0.000197  -0.007605  -0.000011   0.006076
    19  H    0.591985  -0.000247  -0.004637  -0.000247  -0.000000  -0.000011
    20  C   -0.000247   5.221930  -0.007605  -0.000223  -0.000000   0.000002
    21  H   -0.004637  -0.007605   0.596482   0.000012   0.000000  -0.000000
    22  C   -0.000247  -0.000223   0.000012   5.221932  -0.037540   0.353416
    23  H   -0.000000  -0.000000   0.000000  -0.037540   0.590401  -0.003977
    24  H   -0.000011   0.000002  -0.000000   0.353416  -0.003977   0.590401
    25  H   -0.000000  -0.037541  -0.000011  -0.000000  -0.000000   0.000000
    26  H   -0.000011   0.353417   0.006077   0.000002   0.000000  -0.000000
              25         26
     1  C    0.000258   0.000003
     2  C    0.000006  -0.000000
     3  C   -0.007981  -0.000230
     4  C   -0.037090   0.001776
     5  C   -0.000210   0.000026
     6  C    0.003382   0.001409
     7  C    0.001409   0.003382
     8  C    0.001776  -0.037090
     9  C    0.000026  -0.000210
    10  C   -0.000230  -0.007981
    11  C   -0.000000   0.000006
    12  C    0.000003   0.000258
    13  H    0.006077  -0.000011
    14  C    0.353417  -0.037541
    15  C    0.000002  -0.000000
    16  H   -0.000011  -0.000000
    17  H   -0.000000   0.000000
    18  H    0.000000  -0.000000
    19  H   -0.000000  -0.000011
    20  C   -0.037541   0.353417
    21  H   -0.000011   0.006077
    22  C   -0.000000   0.000002
    23  H   -0.000000   0.000000
    24  H    0.000000  -0.000000
    25  H    0.590401  -0.003977
    26  H   -0.003977   0.590401
 Mulliken charges:
               1
     1  C   -0.124757
     2  C   -0.226169
     3  C   -0.226170
     4  C    0.178225
     5  C    0.178226
     6  C    0.000704
     7  C    0.000700
     8  C    0.178230
     9  C    0.178230
    10  C   -0.226176
    11  C   -0.226174
    12  C   -0.124754
    13  H    0.129175
    14  C   -0.213627
    15  C   -0.213628
    16  H    0.128257
    17  H    0.129175
    18  H    0.129175
    19  H    0.128258
    20  C   -0.213626
    21  H    0.129174
    22  C   -0.213628
    23  H    0.130295
    24  H    0.130295
    25  H    0.130295
    26  H    0.130295
 Sum of Mulliken charges =  -0.00000
 Mulliken charges with hydrogens summed into heavy atoms:
               1
     1  C    0.003500
     2  C   -0.096994
     3  C   -0.096995
     4  C    0.178225
     5  C    0.178226
     6  C    0.000704
     7  C    0.000700
     8  C    0.178230
     9  C    0.178230
    10  C   -0.097001
    11  C   -0.096999
    12  C    0.003503
    14  C   -0.083332
    15  C   -0.083334
    20  C   -0.083331
    22  C   -0.083333
 Electronic spatial extent (au):  <R**2>=           2954.8703
 Charge=             -0.0000 electrons
 Dipole moment (field-independent basis, Debye):
    X=              0.0000    Y=              0.0000    Z=              0.0001  Tot=              0.0001
 Quadrupole moment (field-independent basis, Debye-Ang):
   XX=            -79.3453   YY=            -79.3266   ZZ=            -96.2566
   XY=             -0.0000   XZ=              0.0001   YZ=              0.0000
 Traceless Quadrupole moment (field-independent basis, Debye-Ang):
   XX=              5.6308   YY=              5.6496   ZZ=            -11.2804
   XY=             -0.0000   XZ=              0.0001   YZ=              0.0000
 Octapole moment (field-independent basis, Debye-Ang**2):
  XXX=              0.0007  YYY=              0.0002  ZZZ=              0.0000  XYY=             -0.0002
  XXY=             -0.0000  XXZ=              0.0018  XZZ=              0.0000  YZZ=              0.0000
  YYZ=             -0.0002  XYZ=             -0.0001
 Hexadecapole moment (field-independent basis, Debye-Ang**3):
 XXXX=          -2307.3427 YYYY=          -1322.3350 ZZZZ=            -99.8203 XXXY=             -0.0001
 XXXZ=              0.0012 YYYX=             -0.0004 YYYZ=              0.0001 ZZZX=              0.0001
 ZZZY=              0.0000 XXYY=           -599.3109 XXZZ=           -483.4700 YYZZ=           -283.1543
 XXYZ=             -0.0001 YYXZ=              0.0002 ZZXY=             -0.0001
 N-N= 9.713392464286D+02 E-N=-3.368623089428D+03  KE= 6.101607393902D+02
 Calling FoFJK, ICntrl=      2127 FMM=F ISym2X=0 I1Cent= 0 IOpClX= 0 NMat=1 NMatS=1 NMatT=0.
 ***** Axes restored to original set *****
 -------------------------------------------------------------------
 Center     Atomic                   Forces (Hartrees/Bohr)
 Number     Number              X              Y              Z
 -------------------------------------------------------------------
      1        6           0.002435643   -0.005725844    0.000725803
      2        6          -0.012824985    0.003140814    0.003950162
      3        6           0.007065114    0.010396241   -0.005663019
      4        6          -0.008424930    0.018088311   -0.002010254
      5        6          -0.007176419    0.018540629   -0.002614032
      6        6           0.001584720   -0.003713342    0.000466527
      7        6          -0.001588097    0.003710223   -0.000466573
      8        6           0.007175350   -0.018534552    0.002614566
      9        6           0.008425183   -0.018083900    0.002010461
     10        6           0.012827147   -0.003148819   -0.003949258
     11        6          -0.007059103   -0.010404043    0.005659189
     12        6          -0.002443413    0.005735885   -0.000723354
     13        1          -0.002399432   -0.001963950    0.001472707
     14        6           0.003977033   -0.047970687    0.012283747
     15        6           0.032459259   -0.037574795   -0.001481998
     16        1          -0.001176040    0.002761039   -0.000348827
     17        1           0.003200920    0.000077327   -0.001233532
     18        1           0.002395969    0.001966356   -0.001470949
     19        1           0.001178811   -0.002766550    0.000349533
     20        6          -0.032453426    0.037579500    0.001476944
     21        1          -0.003199462   -0.000075286    0.001232296
     22        6          -0.003973461    0.047969675   -0.012283494
     23        1          -0.000487389    0.002953798   -0.000664787
     24        1           0.001823791   -0.002467951    0.000019000
     25        1          -0.001826900    0.002467940   -0.000018007
     26        1           0.000484120   -0.002958018    0.000667151
 -------------------------------------------------------------------
 Cartesian Forces:  Max     0.047970687 RMS     0.012635946

 GradGradGradGradGradGradGradGradGradGradGradGradGradGradGradGradGradGrad
 Berny optimization.
 FormGI is forming the generalized inverse of G from B-inverse, IUseBI=4.
 Internal  Forces:  Max     0.024782465 RMS     0.005795385
 Search for a local minimum.
 Step number   1 out of a maximum of  156
 All quantities printed in internal units (Hartrees-Bohrs-Radians)
 Mixed Optimization -- RFO/linear search
 Second derivative matrix not updated -- first step.
 ITU=  0
     Eigenvalues ---    0.01936   0.01947   0.01983   0.01990   0.01994
     Eigenvalues ---    0.02001   0.02008   0.02037   0.02037   0.02059
     Eigenvalues ---    0.02065   0.02065   0.02065   0.02075   0.02075
     Eigenvalues ---    0.02079   0.02079   0.02081   0.02081   0.02095
     Eigenvalues ---    0.02095   0.02110   0.02110   0.16000   0.16000
     Eigenvalues ---    0.16000   0.16000   0.16000   0.16000   0.16000
     Eigenvalues ---    0.16000   0.16000   0.16000   0.22080   0.22192
     Eigenvalues ---    0.22432   0.22722   0.23448   0.23633   0.24526
     Eigenvalues ---    0.24583   0.24913   0.25000   0.33508   0.35572
     Eigenvalues ---    0.35572   0.35573   0.35573   0.35576   0.35576
     Eigenvalues ---    0.35576   0.35577   0.35707   0.35708   0.36747
     Eigenvalues ---    0.38809   0.40833   0.41732   0.42899   0.42955
     Eigenvalues ---    0.43674   0.44430   0.44492   0.44778   0.44951
     Eigenvalues ---    0.44995   0.45150   0.45150   0.45402   0.45470
     Eigenvalues ---    0.45762   0.45762
 RFO step:  Lambda=-1.22597156D-02 EMin= 1.93574407D-02
 Linear search not attempted -- first point.
 Iteration  1 RMS(Cart)=  0.01758349 RMS(Int)=  0.00009935
 Iteration  2 RMS(Cart)=  0.00012580 RMS(Int)=  0.00003498
 Iteration  3 RMS(Cart)=  0.00000001 RMS(Int)=  0.00003498
 Variable       Old X    -DE/DX   Delta X   Delta X   Delta X     New X
                                 (Linear)    (Quad)   (Total)
    R1        2.64264  -0.00174   0.00000  -0.00628  -0.00632   2.63632
    R2        2.64265  -0.00174   0.00000  -0.00628  -0.00632   2.63633
    R3        2.04543   0.00302   0.00000   0.00818   0.00818   2.05361
    R4        2.65103   0.00481   0.00000   0.01035   0.01035   2.66137
    R5        2.04749   0.00227   0.00000   0.00617   0.00617   2.05366
    R6        2.65103   0.00481   0.00000   0.01034   0.01034   2.66137
    R7        2.04749   0.00227   0.00000   0.00618   0.00618   2.05366
    R8        2.67060   0.01230   0.00000   0.03194   0.03202   2.70263
    R9        2.65169   0.02468   0.00000   0.05160   0.05155   2.70324
   R10        2.67061   0.01230   0.00000   0.03193   0.03202   2.70263
   R11        2.65169   0.02468   0.00000   0.05160   0.05155   2.70324
   R12        2.66564   0.00741   0.00000   0.02326   0.02344   2.68908
   R13        2.67062   0.01229   0.00000   0.03193   0.03201   2.70263
   R14        2.67060   0.01230   0.00000   0.03194   0.03203   2.70263
   R15        2.65101   0.00481   0.00000   0.01035   0.01035   2.66137
   R16        2.65170   0.02468   0.00000   0.05159   0.05155   2.70324
   R17        2.65102   0.00481   0.00000   0.01035   0.01035   2.66137
   R18        2.65169   0.02468   0.00000   0.05160   0.05155   2.70324
   R19        2.64265  -0.00174   0.00000  -0.00628  -0.00633   2.63633
   R20        2.04750   0.00227   0.00000   0.00616   0.00616   2.05366
   R21        2.64265  -0.00174   0.00000  -0.00628  -0.00632   2.63633
   R22        2.04750   0.00227   0.00000   0.00616   0.00616   2.05366
   R23        2.04541   0.00303   0.00000   0.00820   0.00820   2.05361
   R24        2.64387  -0.02478   0.00000  -0.05601  -0.05610   2.58777
   R25        2.04755   0.00213   0.00000   0.00578   0.00578   2.05334
   R26        2.64387  -0.02478   0.00000  -0.05601  -0.05610   2.58777
   R27        2.04757   0.00212   0.00000   0.00577   0.00577   2.05334
   R28        2.04755   0.00213   0.00000   0.00578   0.00578   2.05334
   R29        2.04756   0.00213   0.00000   0.00578   0.00578   2.05334
    A1        2.10245   0.00256   0.00000   0.00355   0.00351   2.10596
    A2        2.09037  -0.00128   0.00000  -0.00177  -0.00176   2.08861
    A3        2.09037  -0.00128   0.00000  -0.00177  -0.00176   2.08861
    A4        2.09814   0.00278   0.00000   0.00977   0.00978   2.10792
    A5        2.07992   0.00124   0.00000   0.01040   0.01040   2.09033
    A6        2.10512  -0.00402   0.00000  -0.02018  -0.02018   2.08494
    A7        2.09814   0.00278   0.00000   0.00977   0.00978   2.10792
    A8        2.07993   0.00124   0.00000   0.01040   0.01040   2.09033
    A9        2.10512  -0.00402   0.00000  -0.02017  -0.02018   2.08494
   A10        2.08535  -0.00430   0.00000  -0.01146  -0.01141   2.07394
   A11        2.10976   0.00808   0.00000   0.02450   0.02442   2.13418
   A12        2.08807  -0.00378   0.00000  -0.01304  -0.01301   2.07506
   A13        2.08535  -0.00430   0.00000  -0.01146  -0.01141   2.07394
   A14        2.10977   0.00808   0.00000   0.02450   0.02442   2.13419
   A15        2.08807  -0.00378   0.00000  -0.01303  -0.01301   2.07506
   A16        2.09694   0.00047   0.00000  -0.00017  -0.00025   2.09669
   A17        2.09313  -0.00024   0.00000   0.00008   0.00012   2.09325
   A18        2.09312  -0.00024   0.00000   0.00009   0.00013   2.09325
   A19        2.09312  -0.00024   0.00000   0.00009   0.00013   2.09325
   A20        2.09313  -0.00024   0.00000   0.00008   0.00012   2.09325
   A21        2.09694   0.00047   0.00000  -0.00016  -0.00025   2.09669
   A22        2.08535  -0.00430   0.00000  -0.01146  -0.01141   2.07394
   A23        2.08807  -0.00378   0.00000  -0.01304  -0.01301   2.07506
   A24        2.10977   0.00808   0.00000   0.02450   0.02442   2.13419
   A25        2.08535  -0.00430   0.00000  -0.01147  -0.01141   2.07394
   A26        2.08807  -0.00378   0.00000  -0.01303  -0.01301   2.07506
   A27        2.10976   0.00808   0.00000   0.02450   0.02442   2.13418
   A28        2.09815   0.00278   0.00000   0.00977   0.00977   2.10792
   A29        2.10512  -0.00402   0.00000  -0.02017  -0.02018   2.08494
   A30        2.07992   0.00124   0.00000   0.01041   0.01041   2.09032
   A31        2.09815   0.00278   0.00000   0.00977   0.00977   2.10792
   A32        2.10512  -0.00403   0.00000  -0.02018  -0.02018   2.08494
   A33        2.07991   0.00124   0.00000   0.01041   0.01041   2.09032
   A34        2.10244   0.00256   0.00000   0.00356   0.00352   2.10596
   A35        2.09037  -0.00128   0.00000  -0.00178  -0.00176   2.08861
   A36        2.09038  -0.00128   0.00000  -0.00178  -0.00176   2.08861
   A37        2.10199   0.00402   0.00000   0.01295   0.01288   2.11488
   A38        2.10309  -0.00427   0.00000  -0.01963  -0.01960   2.08349
   A39        2.07810   0.00026   0.00000   0.00668   0.00671   2.08481
   A40        2.10199   0.00402   0.00000   0.01295   0.01288   2.11488
   A41        2.10309  -0.00427   0.00000  -0.01963  -0.01960   2.08349
   A42        2.07810   0.00026   0.00000   0.00668   0.00671   2.08481
   A43        2.10199   0.00402   0.00000   0.01296   0.01289   2.11488
   A44        2.10309  -0.00427   0.00000  -0.01963  -0.01960   2.08349
   A45        2.07810   0.00026   0.00000   0.00668   0.00671   2.08481
   A46        2.10199   0.00402   0.00000   0.01295   0.01289   2.11488
   A47        2.10310  -0.00427   0.00000  -0.01963  -0.01960   2.08350
   A48        2.07810   0.00026   0.00000   0.00668   0.00671   2.08481
    D1        0.00001  -0.00000   0.00000  -0.00001  -0.00001   0.00000
    D2       -3.14158  -0.00000   0.00000  -0.00001  -0.00001  -3.14159
    D3       -3.14159   0.00000   0.00000   0.00000   0.00000  -3.14159
    D4       -0.00000   0.00000   0.00000   0.00000   0.00000   0.00000
    D5       -0.00002   0.00000   0.00000   0.00001   0.00001  -0.00001
    D6        3.14159   0.00000   0.00000   0.00000   0.00000   3.14159
    D7        3.14159   0.00000   0.00000   0.00000   0.00000   3.14159
    D8        0.00001  -0.00000   0.00000  -0.00001  -0.00001   0.00000
    D9        0.00000  -0.00000   0.00000  -0.00000  -0.00000   0.00000
   D10        3.14158   0.00000   0.00000   0.00001   0.00001   3.14159
   D11       -3.14159  -0.00000   0.00000  -0.00000  -0.00000  -3.14159
   D12       -0.00001   0.00000   0.00000   0.00000   0.00000  -0.00000
   D13        0.00001  -0.00000   0.00000  -0.00001  -0.00001   0.00000
   D14       -3.14159  -0.00000   0.00000  -0.00001  -0.00000  -3.14159
   D15        3.14159   0.00000   0.00000   0.00000   0.00000   3.14159
   D16       -0.00001   0.00000   0.00000   0.00001   0.00001  -0.00000
   D17        0.00000   0.00000   0.00000   0.00000   0.00000   0.00001
   D18       -3.14157  -0.00000   0.00000  -0.00001  -0.00001  -3.14158
   D19       -3.14158  -0.00000   0.00000  -0.00000  -0.00000  -3.14159
   D20        0.00003  -0.00000   0.00000  -0.00002  -0.00002   0.00001
   D21        3.14157   0.00000   0.00000   0.00001   0.00001   3.14158
   D22       -0.00001   0.00000   0.00000   0.00000   0.00000  -0.00001
   D23       -0.00002   0.00000   0.00000   0.00001   0.00001  -0.00001
   D24        3.14158   0.00000   0.00000   0.00001   0.00001   3.14158
   D25       -0.00001   0.00000   0.00000   0.00000   0.00000  -0.00001
   D26        3.14156   0.00000   0.00000   0.00002   0.00002   3.14158
   D27        3.14159  -0.00000   0.00000  -0.00000  -0.00000   3.14159
   D28       -0.00002   0.00000   0.00000   0.00001   0.00001  -0.00001
   D29       -3.14156  -0.00000   0.00000  -0.00002  -0.00002  -3.14158
   D30        0.00003  -0.00000   0.00000  -0.00001  -0.00001   0.00002
   D31        0.00002  -0.00000   0.00000  -0.00001  -0.00001   0.00001
   D32       -3.14158  -0.00000   0.00000  -0.00001  -0.00001  -3.14158
   D33       -0.00000   0.00000   0.00000   0.00000   0.00000  -0.00000
   D34        3.14157   0.00000   0.00000   0.00001   0.00001   3.14158
   D35       -3.14157  -0.00000   0.00000  -0.00001  -0.00001  -3.14159
   D36        0.00000  -0.00000   0.00000  -0.00000  -0.00000  -0.00000
   D37        3.14157   0.00000   0.00000   0.00001   0.00001   3.14158
   D38       -0.00003   0.00000   0.00000   0.00002   0.00002  -0.00001
   D39       -0.00000  -0.00000   0.00000  -0.00000  -0.00000  -0.00000
   D40        3.14158   0.00000   0.00000   0.00001   0.00001   3.14159
   D41       -3.14157  -0.00000   0.00000  -0.00001  -0.00001  -3.14158
   D42        0.00002  -0.00000   0.00000  -0.00001  -0.00001   0.00001
   D43        0.00000   0.00000   0.00000   0.00000   0.00000   0.00000
   D44        3.14159   0.00000   0.00000   0.00000   0.00000  -3.14159
   D45       -0.00001   0.00000   0.00000   0.00001   0.00001  -0.00000
   D46       -3.14159  -0.00000   0.00000  -0.00000  -0.00000  -3.14159
   D47       -3.14159  -0.00000   0.00000  -0.00000  -0.00000  -3.14159
   D48        0.00001  -0.00000   0.00000  -0.00001  -0.00001   0.00000
   D49        0.00004  -0.00000   0.00000  -0.00002  -0.00002   0.00002
   D50       -3.14157  -0.00000   0.00000  -0.00001  -0.00001  -3.14158
   D51       -3.14157  -0.00000   0.00000  -0.00001  -0.00001  -3.14158
   D52        0.00001   0.00000   0.00000   0.00000   0.00000   0.00001
   D53        0.00001  -0.00000   0.00000  -0.00001  -0.00001   0.00000
   D54        3.14157   0.00000   0.00000   0.00001   0.00001   3.14158
   D55       -3.14158  -0.00000   0.00000  -0.00001  -0.00001  -3.14159
   D56       -0.00002   0.00000   0.00000   0.00001   0.00001  -0.00001
   D57       -0.00002   0.00000   0.00000   0.00001   0.00001  -0.00001
   D58        3.14157   0.00000   0.00000   0.00001   0.00001   3.14158
   D59        3.14157   0.00000   0.00000   0.00001   0.00001   3.14158
   D60       -0.00002   0.00000   0.00000   0.00001   0.00001  -0.00001
   D61        0.00002  -0.00000   0.00000  -0.00001  -0.00001   0.00001
   D62       -3.14157  -0.00000   0.00000  -0.00001  -0.00001  -3.14159
   D63       -3.14158  -0.00000   0.00000  -0.00000  -0.00000  -3.14159
   D64        0.00001  -0.00000   0.00000  -0.00001  -0.00001   0.00000
   D65       -0.00002   0.00000   0.00000   0.00001   0.00001  -0.00001
   D66        3.14157   0.00000   0.00000   0.00001   0.00001   3.14159
   D67       -3.14158  -0.00000   0.00000  -0.00001  -0.00001  -3.14159
   D68        0.00001  -0.00000   0.00000  -0.00001  -0.00001   0.00000
   D69       -0.00001   0.00000   0.00000   0.00001   0.00001  -0.00000
   D70       -3.14158  -0.00000   0.00000  -0.00001  -0.00001  -3.14159
   D71        3.14158   0.00000   0.00000   0.00001   0.00001   3.14159
   D72        0.00000  -0.00000   0.00000  -0.00000  -0.00000   0.00000
   D73       -0.00000   0.00000   0.00000   0.00000   0.00000  -0.00000
   D74        3.14159   0.00000   0.00000   0.00000   0.00000  -3.14159
   D75       -3.14159  -0.00000   0.00000  -0.00000  -0.00000   3.14159
   D76        0.00000  -0.00000   0.00000  -0.00000  -0.00000   0.00000
         Item               Value     Threshold  Converged?
 Maximum Force            0.024782     0.000450     NO 
 RMS     Force            0.005795     0.000300     NO 
 Maximum Displacement     0.057283     0.001800     NO 
 RMS     Displacement     0.017519     0.001200     NO 
 Predicted change in Energy=-6.316597D-03
 GradGradGradGradGradGradGradGradGradGradGradGradGradGradGradGradGradGrad

                          Input orientation:                          
 ---------------------------------------------------------------------
 Center     Atomic      Atomic             Coordinates (Angstroms)
 Number     Number       Type             X           Y           Z
 ---------------------------------------------------------------------
      1          6           0       -1.059078    2.806477    0.441072
      2          6           0        0.246601    2.553699    0.019690
      3          6           0       -1.827241    1.797094    1.021872
      4          6           0       -1.302481    0.501777    1.195638
      5          6           0        0.817881    1.275355    0.170978
      6          6           0        0.035453    0.236354    0.765679
      7          6           0        0.589277   -1.064122    0.929913
      8          6           0       -0.193154   -2.103127    1.524607
      9          6           0        1.927207   -1.329550    0.499946
     10          6           0        0.378113   -3.381478    1.675865
     11          6           0        2.451955   -2.624874    0.673685
     12          6           0        1.683786   -3.634264    1.254464
     13          1           0       -2.842775    2.010099    1.344902
     14          6           0       -2.061259   -0.556899    1.787053
     15          6           0        2.153035    0.980612   -0.249498
     16          1           0       -1.482029    3.799626    0.315635
     17          1           0        0.831977    3.350770   -0.430913
     18          1           0        3.467483   -2.837887    0.350638
     19          1           0        2.106723   -4.627422    1.379873
     20          6           0       -1.528303   -1.808378    1.945102
     21          1           0       -0.207266   -4.178552    2.126459
     22          6           0        2.685991   -0.270868   -0.091452
     23          1           0        2.754473    1.764143   -0.702274
     24          1           0        3.703280   -0.463832   -0.420908
     25          1           0       -3.078543   -0.363930    2.116522
     26          1           0       -2.129735   -2.591906    2.397891
 ---------------------------------------------------------------------
                    Distance matrix (angstroms):
                    1          2          3          4          5
     1  C    0.000000
     2  C    1.395083   0.000000
     3  C    1.395084   2.424385   0.000000
     4  C    2.437264   2.827171   1.408337   0.000000
     5  C    2.437264   1.408337   2.827172   2.478767   0.000000
     6  C    2.812277   2.443599   2.443598   1.430169   1.430170
     7  C    4.235277   3.746273   3.746274   2.470101   2.470100
     8  C    5.101772   4.913674   4.258486   2.850325   3.777386
     9  C    5.101772   4.258486   4.913673   3.777384   2.850325
    10  C    6.471554   6.163322   5.666471   4.258484   4.913672
    11  C    6.471556   5.666473   6.163323   4.913672   4.258486
    12  C    7.047557   6.471558   6.471558   5.101773   5.101774
    13  H    2.152372   3.405280   1.086752   2.160977   3.913866
    14  C    3.758768   4.257419   2.486272   1.430494   3.776017
    15  C    3.758768   2.486273   4.257420   3.776015   1.430493
    16  H    1.086723   2.151297   2.151297   3.417960   3.417961
    17  H    2.152371   1.086752   3.405280   3.913865   2.160977
    18  H    7.235798   6.289102   7.068784   5.883871   4.896063
    19  H    8.134279   7.541794   7.541793   6.161599   6.161601
    20  C    4.876389   5.087752   3.733785   2.439162   4.261632
    21  H    7.235796   7.068782   6.289100   4.896061   5.883871
    22  C    4.876390   3.733786   5.087752   4.261631   2.439162
    23  H    4.115442   2.726545   4.895494   4.653441   2.179879
    24  H    5.841060   4.609583   6.146549   5.348203   3.420619
    25  H    4.115441   4.895493   2.726544   2.179879   4.653441
    26  H    5.841060   6.146549   4.609582   3.420619   5.348204
                    6          7          8          9         10
     6  C    0.000000
     7  C    1.423000   0.000000
     8  C    2.470102   1.430171   0.000000
     9  C    2.470101   1.430168   2.478767   0.000000
    10  C    3.746273   2.443598   1.408335   2.827169   0.000000
    11  C    3.746274   2.443598   2.827171   1.408336   2.424383
    12  C    4.235280   2.812279   2.437266   2.437265   1.395085
    13  H    3.430141   4.626233   4.896061   5.883871   6.289098
    14  C    2.463465   2.831484   2.439162   4.261630   3.733784
    15  C    2.463465   2.831482   4.261631   2.439162   5.087750
    16  H    3.899000   5.322001   6.161599   6.161599   7.541791
    17  H    3.430142   4.626232   5.883872   4.896062   7.068781
    18  H    4.626234   3.430142   3.913865   2.160978   3.405279
    19  H    5.322003   3.899002   3.417960   3.417961   2.151298
    20  C    2.831484   2.463467   1.430494   3.776016   2.486272
    21  H    4.626233   3.430142   2.160975   3.913864   1.086752
    22  C    2.831484   2.463464   3.776017   1.430494   4.257418
    23  H    3.447041   3.918060   5.348203   3.420619   6.146547
    24  H    3.918062   3.447040   4.653442   2.179880   4.895493
    25  H    3.447041   3.918062   3.420619   5.348203   4.609582
    26  H    3.918061   3.447043   2.179879   4.653441   2.726545
                   11         12         13         14         15
    11  C    0.000000
    12  C    1.395083   0.000000
    13  H    7.068782   7.235798   0.000000
    14  C    5.087751   4.876391   2.719512   0.000000
    15  C    3.733785   4.876390   5.344163   4.926637   0.000000
    16  H    7.541793   8.134280   2.472535   4.634641   4.634642
    17  H    6.289101   7.235799   4.295896   5.344162   2.719514
    18  H    1.086752   2.152369   8.019407   6.150868   4.082753
    19  H    2.151299   1.086723   8.279822   5.840122   5.840123
    20  C    4.257419   3.758770   4.082750   1.369387   5.113412
    21  H    3.405279   2.152371   6.771717   4.082751   6.150867
    22  C    2.486273   3.758769   6.150869   5.113412   1.369388
    23  H    4.609582   5.841061   5.964948   5.897055   1.086579
    24  H    2.726546   4.115443   7.217289   6.173627   2.125808
    25  H    6.146548   5.841062   2.507389   1.086579   5.897055
    26  H    4.895493   4.115443   4.774480   2.125809   6.173627
                   16         17         18         19         20
    16  H    0.000000
    17  H    2.472535   0.000000
    18  H    8.279823   6.771720   0.000000
    19  H    9.221003   8.279824   2.472535   0.000000
    20  C    5.840122   6.150869   5.344163   4.634642   0.000000
    21  H    8.279821   8.019406   4.295893   2.472533   2.719513
    22  C    5.840123   4.082753   2.719515   4.634643   4.926638
    23  H    4.809083   2.507392   4.774483   6.753297   6.173627
    24  H    6.753296   4.774482   2.507393   4.809084   5.897056
    25  H    4.809080   5.964947   7.217289   6.753296   2.125808
    26  H    6.753295   7.217290   5.964947   4.809081   1.086579
                   21         22         23         24         25
    21  H    0.000000
    22  C    5.344161   0.000000
    23  H    7.217288   2.125808   0.000000
    24  H    5.964947   1.086579   2.437883   0.000000
    25  H    4.774481   6.173627   6.818972   7.241662   0.000000
    26  H    2.507391   5.897056   7.241662   6.818973   2.437885
                   26
    26  H    0.000000
 Stoichiometry    C16H10
 Framework group  C1[X(C16H10)]
 Deg. of freedom    72
 Full point group                 C1      NOp   1
 Largest Abelian subgroup         C1      NOp   1
 Largest concise Abelian subgroup C1      NOp   1
                         Standard orientation:                         
 ---------------------------------------------------------------------
 Center     Atomic      Atomic             Coordinates (Angstroms)
 Number     Number       Type             X           Y           Z
 ---------------------------------------------------------------------
      1          6           0       -3.523777   -0.000000    0.000023
      2          6           0       -2.833237   -1.212193    0.000011
      3          6           0       -2.833236    1.212193    0.000011
      4          6           0       -1.425162    1.239383   -0.000004
      5          6           0       -1.425163   -1.239384   -0.000006
      6          6           0       -0.711501    0.000000   -0.000010
      7          6           0        0.711500   -0.000001   -0.000009
      8          6           0        1.425163    1.239384   -0.000004
      9          6           0        1.425163   -1.239383   -0.000005
     10          6           0        2.833235    1.212192    0.000011
     11          6           0        2.833237   -1.212191    0.000010
     12          6           0        3.523779    0.000000    0.000022
     13          1           0       -3.385858    2.147948    0.000019
     14          6           0       -0.684694    2.463319   -0.000014
     15          6           0       -0.684693   -2.463319   -0.000015
     16          1           0       -4.610501    0.000000    0.000038
     17          1           0       -3.385859   -2.147948    0.000016
     18          1           0        3.385861   -2.147946    0.000022
     19          1           0        4.610502    0.000002    0.000039
     20          6           0        0.684693    2.463319   -0.000016
     21          1           0        3.385858    2.147947    0.000017
     22          6           0        0.684695   -2.463319   -0.000014
     23          1           0       -1.218941   -3.409486   -0.000023
     24          1           0        1.218942   -3.409487   -0.000021
     25          1           0       -1.218943    3.409486   -0.000021
     26          1           0        1.218942    3.409487   -0.000023
 ---------------------------------------------------------------------
 Rotational constants (GHZ):           1.0087696           0.5550501           0.3580449
 Standard basis: 6-31G(d) (6D, 7F)
 There are   260 symmetry adapted cartesian basis functions of A   symmetry.
 There are   260 symmetry adapted basis functions of A   symmetry.
   260 basis functions,   488 primitive gaussians,   260 cartesian basis functions
    53 alpha electrons       53 beta electrons
       nuclear repulsion energy       965.1165977460 Hartrees.
 NAtoms=   26 NActive=   26 NUniq=   26 SFac= 1.00D+00 NAtFMM=   60 NAOKFM=F Big=F
 Integral buffers will be    131072 words long.
 Raffenetti 2 integral format.
 Two-electron integral symmetry is turned on.
 One-electron integrals computed using PRISM.
 NBasis=   260 RedAO= T EigKep=  1.68D-04  NBF=   260
 NBsUse=   260 1.00D-06 EigRej= -1.00D+00 NBFU=   260
 Initial guess from the checkpoint file:  "checkpoint.chk"
 B after Tr=    -0.000000   -0.000000   -0.000000
         Rot=    1.000000   -0.000000   -0.000000   -0.000000 Ang=  -0.00 deg.
 ExpMin= 1.61D-01 ExpMax= 3.05D+03 ExpMxC= 4.57D+02 IAcc=3 IRadAn=         5 AccDes= 0.00D+00
 Harris functional with IExCor=  402 and IRadAn=       5 diagonalized for initial guess.
 HarFok:  IExCor=  402 AccDes= 0.00D+00 IRadAn=         5 IDoV= 1 UseB2=F ITyADJ=14
 ICtDFT=  3500011 ScaDFX=  1.000000  1.000000  1.000000  1.000000
 FoFCou: FMM=F IPFlag=           0 FMFlag=      100000 FMFlg1=           0
         NFxFlg=           0 DoJE=T BraDBF=F KetDBF=T FulRan=T
         wScrn=  0.000000 ICntrl=       500 IOpCl=  0 I1Cent=   200000004 NGrid=           0
         NMat0=    1 NMatS0=      1 NMatT0=    0 NMatD0=    1 NMtDS0=    0 NMtDT0=    0
 Petite list used in FoFCou.
 Requested convergence on RMS density matrix=1.00D-08 within 128 cycles.
 Requested convergence on MAX density matrix=1.00D-06.
 Requested convergence on             energy=1.00D-06.
 No special actions if energy rises.
 Integral accuracy reduced to 1.0D-05 until final iterations.
 Initial convergence to 1.0D-05 achieved.  Increase integral accuracy.
 SCF Done:  E(RB3LYP) =  -615.772687258     A.U. after   12 cycles
            NFock= 12  Conv=0.51D-08     -V/T= 2.0098
 Calling FoFJK, ICntrl=      2127 FMM=F ISym2X=0 I1Cent= 0 IOpClX= 0 NMat=1 NMatS=1 NMatT=0.
 ***** Axes restored to original set *****
 -------------------------------------------------------------------
 Center     Atomic                   Forces (Hartrees/Bohr)
 Number     Number              X              Y              Z
 -------------------------------------------------------------------
      1        6           0.000634159   -0.001489951    0.000188705
      2        6          -0.000985066   -0.002064385    0.000966379
      3        6           0.002242818   -0.000886943   -0.000593953
      4        6          -0.000238391    0.007261111   -0.001996666
      5        6          -0.005179617    0.005457957    0.000390911
      6        6          -0.000288364    0.000679174   -0.000086504
      7        6           0.000287613   -0.000680249    0.000086297
      8        6           0.005179170   -0.005456209   -0.000390901
      9        6           0.000238522   -0.007260266    0.001996676
     10        6           0.000986267    0.002062378   -0.000965956
     11        6          -0.002241860    0.000885637    0.000593222
     12        6          -0.000635867    0.001491564   -0.000187940
     13        1          -0.000397368   -0.000667989    0.000342474
     14        6           0.001900830   -0.010159712    0.002201100
     15        6           0.006100601   -0.008627565    0.000171518
     16        1           0.000007413   -0.000017200    0.000002134
     17        1           0.000782919   -0.000237488   -0.000228046
     18        1           0.000397302    0.000668477   -0.000342181
     19        1          -0.000007002    0.000016974   -0.000002073
     20        6          -0.006099821    0.008627433   -0.000172060
     21        1          -0.000782933    0.000237752    0.000227910
     22        6          -0.001900974    0.010159810   -0.002200685
     23        1          -0.001155746    0.001490363    0.000008757
     24        1           0.000253876   -0.001819581    0.000426749
     25        1          -0.000254002    0.001819407   -0.000426961
     26        1           0.001155523   -0.001490501   -0.000008907
 -------------------------------------------------------------------
 Cartesian Forces:  Max     0.010159810 RMS     0.003042322

 GradGradGradGradGradGradGradGradGradGradGradGradGradGradGradGradGradGrad
 Berny optimization.
 Using GEDIIS/GDIIS optimizer.
 FormGI is forming the generalized inverse of G from B-inverse, IUseBI=4.
 Internal  Forces:  Max     0.004971174 RMS     0.001129826
 Search for a local minimum.
 Step number   2 out of a maximum of  156
 All quantities printed in internal units (Hartrees-Bohrs-Radians)
 Mixed Optimization -- RFO/linear search
 Update second derivatives using D2CorX and points    1    2
 DE= -6.91D-03 DEPred=-6.32D-03 R= 1.09D+00
 TightC=F SS=  1.41D+00  RLast= 1.76D-01 DXNew= 5.0454D-01 5.2844D-01
 Trust test= 1.09D+00 RLast= 1.76D-01 DXMaxT set to 5.05D-01
 ITU=  1  0
 Use linear search instead of GDIIS.
     Eigenvalues ---    0.01936   0.01947   0.01984   0.01991   0.01996
     Eigenvalues ---    0.02002   0.02009   0.02038   0.02038   0.02060
     Eigenvalues ---    0.02065   0.02066   0.02066   0.02076   0.02076
     Eigenvalues ---    0.02080   0.02080   0.02081   0.02081   0.02095
     Eigenvalues ---    0.02095   0.02110   0.02110   0.15079   0.16000
     Eigenvalues ---    0.16000   0.16000   0.16000   0.16000   0.16000
     Eigenvalues ---    0.16000   0.16000   0.16053   0.22078   0.22209
[...]
     24          1           0        1.229752   -3.402527   -0.000001
     25          1           0       -1.229752    3.402527   -0.000001
     26          1           0        1.229752    3.402527   -0.000002
 ---------------------------------------------------------------------
 Rotational constants (GHZ):           1.0099127           0.5547965           0.3580832

 **********************************************************************

            Population analysis using the SCF Density.

 **********************************************************************

 Orbital symmetries:
       Occupied  (A) (A) (A) (A) (A) (A) (A) (A) (A) (A) (A) (A)
                 (A) (A) (A) (A) (A) (A) (A) (A) (A) (A) (A) (A)
                 (A) (A) (A) (A) (A) (A) (A) (A) (A) (A) (A) (A)
                 (A) (A) (A) (A) (A) (A) (A) (A) (A) (A) (A) (A)
                 (A) (A) (A) (A) (A)
       Virtual   (A) (A) (A) (A) (A) (A) (A) (A) (A) (A) (A) (A)
                 (A) (A) (A) (A) (A) (A) (A) (A) (A) (A) (A) (A)
                 (A) (A) (A) (A) (A) (A) (A) (A) (A) (A) (A) (A)
                 (A) (A) (A) (A) (A) (A) (A) (A) (A) (A) (A) (A)
                 (A) (A) (A) (A) (A) (A) (A) (A) (A) (A) (A) (A)
                 (A) (A) (A) (A) (A) (A) (A) (A) (A) (A) (A) (A)
                 (A) (A) (A) (A) (A) (A) (A) (A) (A) (A) (A) (A)
                 (A) (A) (A) (A) (A) (A) (A) (A) (A) (A) (A) (A)
                 (A) (A) (A) (A) (A) (A) (A) (A) (A) (A) (A) (A)
                 (A) (A) (A) (A) (A) (A) (A) (A) (A) (A) (A) (A)
                 (A) (A) (A) (A) (A) (A) (A) (A) (A) (A) (A) (A)
                 (A) (A) (A) (A) (A) (A) (A) (A) (A) (A) (A) (A)
                 (A) (A) (A) (A) (A) (A) (A) (A) (A) (A) (A) (A)
                 (A) (A) (A) (A) (A) (A) (A) (A) (A) (A) (A) (A)
                 (A) (A) (A) (A) (A) (A) (A) (A) (A) (A) (A) (A)
                 (A) (A) (A) (A) (A) (A) (A) (A) (A) (A) (A) (A)
                 (A) (A) (A) (A) (A) (A) (A) (A) (A) (A) (A) (A)
                 (A) (A) (A)
 The electronic state is 1-A.
 Alpha  occ. eigenvalues --  -10.19762 -10.19760 -10.19754 -10.19753 -10.19654
 Alpha  occ. eigenvalues --  -10.19612 -10.19180 -10.19180 -10.19109 -10.19109
 Alpha  occ. eigenvalues --  -10.19107 -10.19107 -10.19003 -10.19003 -10.18988
 Alpha  occ. eigenvalues --  -10.18988  -0.88825  -0.84678  -0.82672  -0.79304
 Alpha  occ. eigenvalues --   -0.76299  -0.74435  -0.72683  -0.70669  -0.62501
 Alpha  occ. eigenvalues --   -0.62457  -0.62009  -0.60517  -0.54275  -0.52102
 Alpha  occ. eigenvalues --   -0.51464  -0.49874  -0.48913  -0.46879  -0.43891
 Alpha  occ. eigenvalues --   -0.43068  -0.42863  -0.41305  -0.40722  -0.39844
 Alpha  occ. eigenvalues --   -0.39420  -0.38848  -0.36449  -0.36221  -0.35861
 Alpha  occ. eigenvalues --   -0.33860  -0.32630  -0.31697  -0.29451  -0.27096
 Alpha  occ. eigenvalues --   -0.25252  -0.22802  -0.19574
 Alpha virt. eigenvalues --   -0.05445  -0.02260  -0.00136   0.02228   0.05963
 Alpha virt. eigenvalues --    0.09352   0.10762   0.11462   0.11666   0.13143
 Alpha virt. eigenvalues --    0.15012   0.15219   0.15683   0.16223   0.18409
 Alpha virt. eigenvalues --    0.19510   0.20049   0.24536   0.25126   0.25341
 Alpha virt. eigenvalues --    0.25473   0.28051   0.28944   0.31202   0.31514
 Alpha virt. eigenvalues --    0.32690   0.34343   0.34527   0.35337   0.45291
 Alpha virt. eigenvalues --    0.46241   0.47261   0.49618   0.50032   0.50380
 Alpha virt. eigenvalues --    0.50707   0.53004   0.53854   0.54650   0.54772
 Alpha virt. eigenvalues --    0.55371   0.56114   0.56771   0.57321   0.57968
 Alpha virt. eigenvalues --    0.58592   0.59281   0.59813   0.60645   0.60983
 Alpha virt. eigenvalues --    0.61389   0.61741   0.61972   0.62064   0.62135
 Alpha virt. eigenvalues --    0.62482   0.63754   0.65333   0.66472   0.68386
 Alpha virt. eigenvalues --    0.68517   0.71037   0.71618   0.76137   0.80321
 Alpha virt. eigenvalues --    0.81595   0.82151   0.82420   0.82864   0.83309
 Alpha virt. eigenvalues --    0.84469   0.85263   0.85464   0.86167   0.87748
 Alpha virt. eigenvalues --    0.88515   0.91597   0.93659   0.94416   0.94958
 Alpha virt. eigenvalues --    0.95733   0.95747   0.97718   0.98979   0.99063
 Alpha virt. eigenvalues --    1.03561   1.05061   1.05414   1.07925   1.10785
 Alpha virt. eigenvalues --    1.11628   1.16714   1.17346   1.20943   1.22535
 Alpha virt. eigenvalues --    1.22566   1.23507   1.25061   1.25186   1.26413
 Alpha virt. eigenvalues --    1.29076   1.30603   1.32406   1.38511   1.39448
 Alpha virt. eigenvalues --    1.42837   1.45157   1.46003   1.46778   1.46939
 Alpha virt. eigenvalues --    1.47433   1.47537   1.48377   1.49629   1.49634
 Alpha virt. eigenvalues --    1.50385   1.52159   1.55711   1.56411   1.61535
 Alpha virt. eigenvalues --    1.71924   1.72346   1.73682   1.77225   1.81508
 Alpha virt. eigenvalues --    1.82151   1.82632   1.82714   1.87780   1.88977
 Alpha virt. eigenvalues --    1.90672   1.91037   1.92341   1.93077   1.93359
 Alpha virt. eigenvalues --    1.93823   1.95586   1.96950   1.99450   2.00192
 Alpha virt. eigenvalues --    2.00845   2.01476   2.06443   2.08560   2.11412
 Alpha virt. eigenvalues --    2.12436   2.13903   2.16336   2.22602   2.23170
 Alpha virt. eigenvalues --    2.23565   2.23759   2.27327   2.27949   2.28158
 Alpha virt. eigenvalues --    2.29305   2.31447   2.32856   2.34278   2.34904
 Alpha virt. eigenvalues --    2.37898   2.38250   2.39740   2.40058   2.43485
 Alpha virt. eigenvalues --    2.51420   2.60028   2.61043   2.63999   2.66471
 Alpha virt. eigenvalues --    2.66487   2.67246   2.70090   2.70339   2.72148
 Alpha virt. eigenvalues --    2.73235   2.77556   2.82711   2.84090   2.86177
 Alpha virt. eigenvalues --    2.87544   2.90619   2.91864   2.93725   3.05142
 Alpha virt. eigenvalues --    3.05892   3.05939   3.23512   3.34878   3.48937
 Alpha virt. eigenvalues --    3.55336   4.07773   4.09191   4.09403   4.10442
 Alpha virt. eigenvalues --    4.13547   4.14239   4.14562   4.16215   4.24314
 Alpha virt. eigenvalues --    4.32975   4.34356   4.40209   4.43309   4.56997
 Alpha virt. eigenvalues --    4.65646   4.92625
          Condensed to atoms (all electrons):
               1          2          3          4          5          6
     1  C    4.927632   0.471471   0.471471   0.011035   0.011035  -0.052093
     2  C    0.471471   5.147920  -0.016653  -0.062631   0.459359  -0.016890
     3  C    0.471471  -0.016653   5.147920   0.459359  -0.062631  -0.016890
     4  C    0.011035  -0.062631   0.459359   4.805426  -0.052936   0.412759
     5  C    0.011035   0.459359  -0.062631  -0.052936   4.805426   0.412759
     6  C   -0.052093  -0.016890  -0.016890   0.412759   0.412759   5.218118
     7  C   -0.002174   0.017570   0.017570  -0.053746  -0.053746   0.256938
     8  C    0.000034  -0.000157  -0.000356  -0.040583   0.011147  -0.053746
     9  C    0.000034  -0.000356  -0.000157   0.011147  -0.040583  -0.053746
    10  C    0.000001  -0.000001  -0.000011  -0.000356  -0.000157   0.017570
    11  C    0.000001  -0.000011  -0.000001  -0.000157  -0.000356   0.017570
    12  C   -0.000000   0.000001   0.000001   0.000034   0.000034  -0.002174
    13  H   -0.043534   0.004245   0.353376  -0.039675   0.000804   0.003977
    14  C    0.007925  -0.000371  -0.097541   0.395660   0.014020   0.001981
    15  C    0.007925  -0.097541  -0.000371   0.014020   0.395660   0.001981
    16  H    0.355176  -0.035136  -0.035136   0.001944   0.001944   0.001573
    17  H   -0.043534   0.353376   0.004245   0.000804  -0.039675   0.003977
    18  H   -0.000000  -0.000000  -0.000000   0.000003   0.000007  -0.000184
    19  H    0.000000  -0.000000  -0.000000  -0.000000  -0.000000   0.000026
    20  C   -0.000387   0.000066   0.009311   0.011056  -0.001362  -0.075273
    21  H   -0.000000  -0.000000  -0.000000   0.000007   0.000003  -0.000184
    22  C   -0.000387   0.009311   0.000066  -0.001362   0.011056  -0.075273
    23  H    0.000176  -0.007685   0.000007  -0.000187  -0.037608   0.003735
    24  H    0.000003  -0.000206  -0.000000   0.000022   0.002129   0.001152
    25  H    0.000176   0.000007  -0.007685  -0.037608  -0.000187   0.003735
    26  H    0.000003  -0.000000  -0.000206   0.002129   0.000022   0.001152
               7          8          9         10         11         12
     1  C   -0.002174   0.000034   0.000034   0.000001   0.000001  -0.000000
     2  C    0.017570  -0.000157  -0.000356  -0.000001  -0.000011   0.000001
     3  C    0.017570  -0.000356  -0.000157  -0.000011  -0.000001   0.000001
     4  C   -0.053746  -0.040583   0.011147  -0.000356  -0.000157   0.000034
     5  C   -0.053746   0.011147  -0.040583  -0.000157  -0.000356   0.000034
     6  C    0.256938  -0.053746  -0.053746   0.017570   0.017570  -0.002174
     7  C    5.218117   0.412759   0.412759  -0.016890  -0.016890  -0.052093
     8  C    0.412759   4.805426  -0.052936   0.459359  -0.062631   0.011035
     9  C    0.412759  -0.052936   4.805426  -0.062631   0.459359   0.011035
    10  C   -0.016890   0.459359  -0.062631   5.147920  -0.016653   0.471471
    11  C   -0.016890  -0.062631   0.459359  -0.016653   5.147920   0.471471
    12  C   -0.052093   0.011035   0.011035   0.471471   0.471471   4.927632
    13  H   -0.000184   0.000007   0.000003  -0.000000  -0.000000  -0.000000
    14  C   -0.075273   0.011056  -0.001362   0.009311   0.000066  -0.000387
    15  C   -0.075273  -0.001362   0.011056   0.000066   0.009311  -0.000387
    16  H    0.000026  -0.000000  -0.000000  -0.000000  -0.000000   0.000000
    17  H   -0.000184   0.000003   0.000007  -0.000000  -0.000000  -0.000000
    18  H    0.003977   0.000804  -0.039675   0.004245   0.353376  -0.043534
    19  H    0.001573   0.001944   0.001944  -0.035136  -0.035136   0.355176
    20  C    0.001981   0.395660   0.014020  -0.097541  -0.000371   0.007925
    21  H    0.003977  -0.039675   0.000804   0.353376   0.004245  -0.043534
    22  C    0.001981   0.014020   0.395660  -0.000371  -0.097541   0.007925
    23  H    0.001152   0.000022   0.002129  -0.000000  -0.000206   0.000003
    24  H    0.003735  -0.000187  -0.037608   0.000007  -0.007685   0.000176
    25  H    0.001152   0.002129   0.000022  -0.000206  -0.000000   0.000003
    26  H    0.003735  -0.037608  -0.000187  -0.007685   0.000007   0.000176
              13         14         15         16         17         18
     1  C   -0.043534   0.007925   0.007925   0.355176  -0.043534  -0.000000
     2  C    0.004245  -0.000371  -0.097541  -0.035136   0.353376  -0.000000
     3  C    0.353376  -0.097541  -0.000371  -0.035136   0.004245  -0.000000
     4  C   -0.039675   0.395660   0.014020   0.001944   0.000804   0.000003
     5  C    0.000804   0.014020   0.395660   0.001944  -0.039675   0.000007
     6  C    0.003977   0.001981   0.001981   0.001573   0.003977  -0.000184
     7  C   -0.000184  -0.075273  -0.075273   0.000026  -0.000184   0.003977
     8  C    0.000007   0.011056  -0.001362  -0.000000   0.000003   0.000804
     9  C    0.000003  -0.001362   0.011056  -0.000000   0.000007  -0.039675
    10  C   -0.000000   0.009311   0.000066  -0.000000  -0.000000   0.004245
    11  C   -0.000000   0.000066   0.009311  -0.000000  -0.000000   0.353376
    12  C   -0.000000  -0.000387  -0.000387   0.000000  -0.000000  -0.043534
    13  H    0.597820  -0.007493   0.000011  -0.004699  -0.000189   0.000000
    14  C   -0.007493   5.165854  -0.000181  -0.000208   0.000011  -0.000000
    15  C    0.000011  -0.000181   5.165854  -0.000208  -0.007493   0.000253
    16  H   -0.004699  -0.000208  -0.000208   0.589264  -0.004699  -0.000000
    17  H   -0.000189   0.000011  -0.007493  -0.004699   0.597820   0.000000
    18  H    0.000000  -0.000000   0.000253  -0.000000   0.000000   0.597820
    19  H   -0.000000   0.000003   0.000003   0.000000  -0.000000  -0.004699
    20  C    0.000253   0.458215  -0.000003   0.000003  -0.000000   0.000011
    21  H    0.000000   0.000253  -0.000000  -0.000000   0.000000  -0.000189
    22  C   -0.000000  -0.000003   0.458215   0.000003   0.000253  -0.007493
    23  H   -0.000000   0.000002   0.351840  -0.000009   0.006361  -0.000012
    24  H    0.000000  -0.000000  -0.038417  -0.000000  -0.000012   0.006361
    25  H    0.006361   0.351840   0.000002  -0.000009  -0.000000   0.000000
    26  H   -0.000012  -0.038417  -0.000000  -0.000000   0.000000  -0.000000
              19         20         21         22         23         24
     1  C    0.000000  -0.000387  -0.000000  -0.000387   0.000176   0.000003
     2  C   -0.000000   0.000066  -0.000000   0.009311  -0.007685  -0.000206
     3  C   -0.000000   0.009311  -0.000000   0.000066   0.000007  -0.000000
     4  C   -0.000000   0.011056   0.000007  -0.001362  -0.000187   0.000022
     5  C   -0.000000  -0.001362   0.000003   0.011056  -0.037608   0.002129
     6  C    0.000026  -0.075273  -0.000184  -0.075273   0.003735   0.001152
     7  C    0.001573   0.001981   0.003977   0.001981   0.001152   0.003735
     8  C    0.001944   0.395660  -0.039675   0.014020   0.000022  -0.000187
     9  C    0.001944   0.014020   0.000804   0.395660   0.002129  -0.037608
    10  C   -0.035136  -0.097541   0.353376  -0.000371  -0.000000   0.000007
    11  C   -0.035136  -0.000371   0.004245  -0.097541  -0.000206  -0.007685
    12  C    0.355176   0.007925  -0.043534   0.007925   0.000003   0.000176
    13  H   -0.000000   0.000253   0.000000  -0.000000  -0.000000   0.000000
    14  C    0.000003   0.458215   0.000253  -0.000003   0.000002  -0.000000
    15  C    0.000003  -0.000003  -0.000000   0.458215   0.351840  -0.038417
    16  H    0.000000   0.000003  -0.000000   0.000003  -0.000009  -0.000000
    17  H   -0.000000  -0.000000   0.000000   0.000253   0.006361  -0.000012
    18  H   -0.004699   0.000011  -0.000189  -0.007493  -0.000012   0.006361
    19  H    0.589264  -0.000208  -0.004699  -0.000208  -0.000000  -0.000009
    20  C   -0.000208   5.165854  -0.007493  -0.000181  -0.000000   0.000002
    21  H   -0.004699  -0.007493   0.597820   0.000011   0.000000  -0.000000
    22  C   -0.000208  -0.000181   0.000011   5.165854  -0.038417   0.351840
    23  H   -0.000000  -0.000000   0.000000  -0.038417   0.593493  -0.004854
    24  H   -0.000009   0.000002  -0.000000   0.351840  -0.004854   0.593493
    25  H   -0.000000  -0.038417  -0.000012  -0.000000  -0.000000   0.000000
    26  H   -0.000009   0.351840   0.006361   0.000002   0.000000  -0.000000
              25         26
     1  C    0.000176   0.000003
     2  C    0.000007  -0.000000
     3  C   -0.007685  -0.000206
     4  C   -0.037608   0.002129
     5  C   -0.000187   0.000022
     6  C    0.003735   0.001152
     7  C    0.001152   0.003735
     8  C    0.002129  -0.037608
     9  C    0.000022  -0.000187
    10  C   -0.000206  -0.007685
    11  C   -0.000000   0.000007
    12  C    0.000003   0.000176
    13  H    0.006361  -0.000012
    14  C    0.351840  -0.038417
    15  C    0.000002  -0.000000
    16  H   -0.000009  -0.000000
    17  H   -0.000000   0.000000
    18  H    0.000000  -0.000000
    19  H   -0.000000  -0.000009
    20  C   -0.038417   0.351840
    21  H   -0.000012   0.006361
    22  C   -0.000000   0.000002
    23  H   -0.000000   0.000000
    24  H    0.000000  -0.000000
    25  H    0.593493  -0.004854
    26  H   -0.004854   0.593493
 Mulliken charges:
               1
     1  C   -0.121986
     2  C   -0.225686
     3  C   -0.225686
     4  C    0.163839
     5  C    0.163839
     6  C   -0.012547
     7  C   -0.012547
     8  C    0.163839
     9  C    0.163838
    10  C   -0.225686
    11  C   -0.225686
    12  C   -0.121987
    13  H    0.128929
    14  C   -0.194959
    15  C   -0.194959
    16  H    0.130171
    17  H    0.128929
    18  H    0.128929
    19  H    0.130171
    20  C   -0.194959
    21  H    0.128929
    22  C   -0.194959
    23  H    0.130058
    24  H    0.130058
    25  H    0.130058
    26  H    0.130058
 Sum of Mulliken charges =  -0.00000
 Mulliken charges with hydrogens summed into heavy atoms:
               1
     1  C    0.008184
     2  C   -0.096757
     3  C   -0.096757
     4  C    0.163839
     5  C    0.163839
     6  C   -0.012547
     7  C   -0.012547
     8  C    0.163839
     9  C    0.163838
    10  C   -0.096757
    11  C   -0.096756
    12  C    0.008184
    14  C   -0.064901
    15  C   -0.064901
    20  C   -0.064901
    22  C   -0.064901
 Electronic spatial extent (au):  <R**2>=           2991.3749
 Charge=             -0.0000 electrons
 Dipole moment (field-independent basis, Debye):
    X=              0.0000    Y=             -0.0000    Z=              0.0000  Tot=              0.0000
 Quadrupole moment (field-independent basis, Debye-Ang):
   XX=            -79.0987   YY=            -79.3937   ZZ=            -96.4819
   XY=              0.0000   XZ=              0.0000   YZ=              0.0000
 Traceless Quadrupole moment (field-independent basis, Debye-Ang):
   XX=              5.8928   YY=              5.5977   ZZ=            -11.4905
   XY=              0.0000   XZ=              0.0000   YZ=              0.0000
 Octapole moment (field-independent basis, Debye-Ang**2):
  XXX=             -0.0000  YYY=             -0.0000  ZZZ=             -0.0000  XYY=              0.0000
  XXY=              0.0000  XXZ=              0.0000  XZZ=             -0.0000  YZZ=             -0.0000
  YYZ=             -0.0000  XYZ=             -0.0000
 Hexadecapole moment (field-independent basis, Debye-Ang**3):
 XXXX=          -2329.9851 YYYY=          -1347.7609 ZZZZ=           -100.1650 XXXY=              0.0000
 XXXZ=              0.0000 YYYX=             -0.0000 YYYZ=              0.0000 ZZZX=              0.0000
 ZZZY=              0.0000 XXYY=           -607.7380 XXZZ=           -488.8138 YYZZ=           -287.5532
 XXYZ=              0.0000 YYXZ=             -0.0000 ZZXY=              0.0000
 N-N= 9.653216378086D+02 E-N=-3.356285764471D+03  KE= 6.098039991969D+02
 Unable to Open any file for archive entry.
 1\1\GINC-CDR1435\FOpt\RB3LYP\6-31G(d)\C16H10\LUSTRA\26-Jan-2022\0\\#n 
 B3LYP/6-31G(d) Opt\\pyrene\\0,1\C,-1.059176256,2.8067299428,0.44105835
 94\C,0.2451970851,2.5532886112,0.0203491601\C,-1.8259044747,1.79768345
 6,1.0212062618\C,-1.3018235749,0.5065574291,1.1940086766\C,0.813869930
 1,1.2784311156,0.1716025699\C,0.0347530519,0.2379857283,0.7654627189\C
 ,0.5899681112,-1.0657608166,0.9301107498\C,-0.1891488753,-2.1062063783
 ,1.5239704547\C,1.926544525,-1.3343325586,0.501564319\C,0.3795232362,-
 3.3810643266,1.6752220574\C,2.4506248902,-2.6254592364,0.6743649057\C,
 1.6838962489,-3.6345058561,1.25451169\H,-2.8427809832,2.0037154111,1.3
 467580155\C,-2.060074232,-0.5605494122,1.7876370314\C,2.1548469994,0.9
 771908412,-0.2492182283\H,-1.4821324061,3.7999072375,0.3156305592\H,0.
 8367005603,3.3461098001,-0.4313466337\H,3.4675011991,-2.8314909897,0.3
 488125916\H,2.1068515686,-4.6276838314,1.3799375632\C,-1.5301255869,-1
 .8049656745,1.9447923917\H,-0.2119802351,-4.1738857588,2.1269173233\C,
 2.6847956188,-0.2672254972,-0.0920628975\H,2.7443045279,1.771844426,-0
 .7006655842\H,3.7015269719,-0.4758891013,-0.4168029432\H,-3.0768052458
 ,-0.351885503,2.1123780489\H,-2.1195826483,-2.599619056,2.3962408359\\
 Version=ES64L-G16RevC.01\State=1-A\HF=-615.7731064\RMSD=8.097e-09\RMSF
 =1.574e-04\Dipole=0.,0.,-0.0000001\Quadrupole=2.7110537,3.4887234,-6.1
 997771,-1.2052506,-3.9119097,-3.0021768\PG=C01 [X(C16H10)]\\@
 The archive entry for this job was punched.


 THE ONLY DIFFERENCE BETWEEN ECCENTRICS AND JOGGERS
 IS THAT JOGGERS WEAR SWEATBANDS WHEN THEY RUN IN THE RAIN.
 Job cpu time:       0 days  0 hours 13 minutes 48.5 seconds.
 Elapsed time:       0 days  0 hours  6 minutes 55.6 seconds.
 File lengths (MBytes):  RWF=     48 Int=      0 D2E=      0 Chk=      7 Scr=      1
 Normal termination of Gaussian 16 at Wed Jan 26 07:59:09 2022.
