 Entering Gaussian System, Link 0=g16
 Initial command:
 /opt/software/gaussian/g16.c01/l1.exe "/localscratch/lustra.25514009.0/Gau-200488.inp" -scrdir="/localscratch/lustra.25514009.0/"
 Entering Link 1 = /opt/software/gaussian/g16.c01/l1.exe PID=    200500.
  
 Copyright (c) 1988-2019, Gaussian, Inc.  All Rights Reserved.
  
 This is part of the Gaussian(R) 16 program.  It is based on
 the Gaussian(R) 09 system (copyright 2009, Gaussian, Inc.),
 the Gaussian(R) 03 system (copyright 2003, Gaussian, Inc.),
 the Gaussian(R) 98 system (copyright 1998, Gaussian, Inc.),
 the Gaussian(R) 94 system (copyright 1995, Gaussian, Inc.),
 the Gaussian 92(TM) system (copyright 1992, Gaussian, Inc.),
 the Gaussian 90(TM) system (copyright 1990, Gaussian, Inc.),
 the Gaussian 88(TM) system (copyright 1988, Gaussian, Inc.),
 the Gaussian 86(TM) system (copyright 1986, Carnegie Mellon
 University), and the Gaussian 82(TM) system (copyright 1983,
 Carnegie Mellon University). Gaussian is a federally registered
 trademark of Gaussian, Inc.
  
 This software contains proprietary and confidential information,
 including trade secrets, belonging to Gaussian, Inc.
  
 This software is provided under written license and may be
 used, copied, transmitted, or stored only in accord with that
 written license.
  
 The following legend is applicable only to US Government
 contracts under FAR:
  
                    RESTRICTED RIGHTS LEGEND
  
 Use, reproduction and disclosure by the US Government is
 subject to restrictions as set forth in subparagraphs (a)
 and (c) of the Commercial Computer Software - Restricted
 Rights clause in FAR 52.227-19.
  
 Gaussian, Inc.
 340 Quinnipiac St., Bldg. 40, Wallingford CT 06492
  
  
 ---------------------------------------------------------------
 Warning -- This program may not be used in any manner that
 competes with the business of Gaussian, Inc. or will provide
 assistance to any competitor of Gaussian, Inc.  The licensee
 of this program is prohibited from giving any competitor of
 Gaussian, Inc. access to this program.  By using this program,
 the user acknowledges that Gaussian, Inc. is engaged in the
 business of creating and licensing software in the field of
 computational chemistry and represents and warrants to the
 licensee that it is not a competitor of Gaussian, Inc. and that
 it will not use this program in any manner prohibited above.
 ---------------------------------------------------------------
  

 Cite this work as:
 Gaussian 16, Revision C.01,
 M. J. Frisch, G. W. Trucks, H. B. Schlegel, G. E. Scuseria, 
 M. A. Robb, J. R. Cheeseman, G. Scalmani, V. Barone, 
 G. A. Petersson, H. Nakatsuji, X. Li, M. Caricato, A. V. Marenich, 
 J. Bloino, B. G. Janesko, R. Gomperts, B. Mennucci, H. P. Hratchian, 
 J. V. Ortiz, A. F. Izmaylov, J. L. Sonnenberg, D. Williams-Young, 
 F. Ding, F. Lipparini, F. Egidi, J. Goings, B. Peng, A. Petrone, 
 T. Henderson, D. Ranasinghe, V. G. Zakrzewski, J. Gao, N. Rega, 
 G. Zheng, W. Liang, M. Hada, M. Ehara, K. Toyota, R. Fukuda, 
 J. Hasegawa, M. Ishida, T. Nakajima, Y. Honda, O. Kitao, H. Nakai, 
 T. Vreven, K. Throssell, J. A. Montgomery, Jr., J. E. Peralta, 
 F. Ogliaro, M. J. Bearpark, J. J. Heyd, E. N. Brothers, K. N. Kudin, 
 V. N. Staroverov, T. A. Keith, R. Kobayashi, J. Normand, 
 K. Raghavachari, A. P. Rendell, J. C. Burant, S. S. Iyengar, 
 J. Tomasi, M. Cossi, J. M. Millam, M. Klene, C. Adamo, R. Cammi, 
 J. W. Ochterski, R. L. Martin, K. Morokuma, O. Farkas, 
 J. B. Foresman, and D. J. Fox, Gaussian, Inc., Wallingford CT, 2019.
 
 ******************************************
 Gaussian 16:  ES64L-G16RevC.01  3-Jul-2019
                27-Jan-2022 
 ******************************************
 %NProcShared=2
 Will use up to    2 processors via shared memory.
 %Chk=checkpoint.chk
 ---------------------
 #n B3LYP/6-31G(d) Opt
 ---------------------
 1/18=20,19=15,26=3,38=1/1,3;
 2/9=110,12=2,17=6,18=5,40=1/2;
 3/5=1,6=6,7=1,11=2,25=1,30=1,71=1,74=-5/1,2,3;
 4//1;
 5/5=2,38=5/2;
 6/7=2,8=2,9=2,10=2,28=1/1;
 7//1,2,3,16;
 1/18=20,19=15,26=3/3(2);
 2/9=110/2;
 99//99;
 2/9=110/2;
 3/5=1,6=6,7=1,11=2,25=1,30=1,71=1,74=-5/1,2,3;
 4/5=5,16=3,69=1/1;
 5/5=2,38=5/2;
 7//1,2,3,16;
 1/18=20,19=15,26=3/3(-5);
 2/9=110/2;
 6/7=2,8=2,9=2,10=2,19=2,28=1/1;
 99/9=1/99;
 -----
 Title
 -----
 Symbolic Z-matrix:
 Charge =  0 Multiplicity = 1
 C                    -0.57407   3.43158   0.3529 
 C                     0.58841   2.95217  -0.2865 
 C                    -1.32318   2.51537   1.12492 
 C                    -0.92555   1.17501   1.25204 
 C                     0.99212   1.61477  -0.16433 
 C                     0.2374    0.71202   0.60765 
 C                     0.64401  -0.64794   0.73475 
 C                    -0.13415  -1.54325   1.52041 
 C                     1.82316  -1.09329   0.07442 
 C                     0.27259  -2.90328   1.64773 
 C                     2.2299   -2.45332   0.20175 
 C                     1.45181  -3.3486    0.98751 
 H                    -2.22253   2.82429   1.63778 
 C                    -1.68171   0.29226   2.01909 
 C                     2.14461   1.17194  -0.80765 
 C                    -0.97767   4.91374   0.18843 
 H                     1.1898    3.62253  -0.88715 
 C                     3.39415  -2.95879  -0.43074 
 C                     1.85868  -4.70845   1.11499 
 C                    -1.29834  -1.03775   2.15298 
 C                    -0.45897  -3.84465   2.41583 
 C                     2.55478  -0.15189  -0.69357 
 H                     2.73739   1.85446  -1.40621 
 H                     3.45612  -0.3971   -1.22635 
 H                    -2.5802    0.63101   2.5225 
 H                    -1.94648  -1.63927   2.76492 
 C                     1.10414  -5.61111   1.88725 
 C                     3.02181  -5.17136   0.47087 
 C                     1.50832  -6.94831   2.01011 
 C                     3.41991  -6.51151   0.59868 
 C                     2.67111  -7.42758   1.37118 
 C                    -0.04853  -5.16837   2.53028 
 H                     0.90714  -7.61857   2.61108 
 C                     3.07551  -8.90939   1.53684 
 C                     3.77777  -4.28869  -0.29647 
 H                     4.31945  -6.82034   0.08612 
 H                    -0.6412   -5.85083   3.12902 
 H                    -1.36036  -3.59947   2.94852 
 H                     4.67638  -4.6274   -0.79971 
 H                     4.04223  -2.3573   -1.04277 
 C                     0.15156   5.81793   0.72894 
 C                    -2.27414   5.27778   0.95175 
 C                    -1.21466   5.22013  -1.30649 
 C                     4.37233  -9.27327   0.77404 
 C                     1.94691  -9.81469   0.9969 
 C                     3.31246  -9.21442   3.03206 
 H                     0.32907   5.61243   1.80682 
 H                    -0.11598   6.89124   0.61805 
 H                     1.10477   5.65703   0.18414 
 H                    -0.30316   5.04098  -1.91343 
 H                    -1.5038    6.28399  -1.44958 
 H                    -2.03008   4.58019  -1.70789 
 H                     1.76945  -9.6102   -0.08117 
 H                     0.99353  -9.6539    1.54143 
 H                     2.21508  -10.88775   1.10875 
 H                     4.25189  -9.10485  -0.31805 
 H                     4.62726  -10.34572   0.91933 
 H                     5.23244  -8.67381   1.14338 
 H                    -2.15359   5.1084    2.04369 
 H                    -3.13467   4.67913   0.5821 
 H                    -2.52843   6.3505    0.8074 
 H                     4.12742  -8.57364   3.43306 
 H                     3.60223  -10.27798   3.17608 
 H                     2.40077  -9.03531   3.63872 
 

 GradGradGradGradGradGradGradGradGradGradGradGradGradGradGradGradGradGrad
 Berny optimization.
 Initialization pass.
                           ----------------------------
                           !    Initial Parameters    !
                           ! (Angstroms and Degrees)  !
 --------------------------                            --------------------------
 ! Name  Definition              Value          Derivative Info.                !
 --------------------------------------------------------------------------------
 ! R1    R(1,2)                  1.4107         estimate D2E/DX2                !
 ! R2    R(1,3)                  1.413          estimate D2E/DX2                !
 ! R3    R(1,16)                 1.5449         estimate D2E/DX2                !
 ! R4    R(2,5)                  1.4023         estimate D2E/DX2                !
 ! R5    R(2,17)                 1.0825         estimate D2E/DX2                !
 ! R6    R(3,4)                  1.4039         estimate D2E/DX2                !
 ! R7    R(3,13)                 1.0804         estimate D2E/DX2                !
 ! R8    R(4,6)                  1.4079         estimate D2E/DX2                !
 ! R9    R(4,14)                 1.3926         estimate D2E/DX2                !
 ! R10   R(5,6)                  1.4073         estimate D2E/DX2                !
 ! R11   R(5,15)                 1.3922         estimate D2E/DX2                !
 ! R12   R(6,7)                  1.4251         estimate D2E/DX2                !
 ! R13   R(7,8)                  1.4228         estimate D2E/DX2                !
 ! R14   R(7,9)                  1.4229         estimate D2E/DX2                !
 ! R15   R(8,10)                 1.4252         estimate D2E/DX2                !
 ! R16   R(8,20)                 1.4181         estimate D2E/DX2                !
 ! R17   R(9,11)                 1.4252         estimate D2E/DX2                !
 ! R18   R(9,22)                 1.4182         estimate D2E/DX2                !
 ! R19   R(10,12)                1.4229         estimate D2E/DX2                !
 ! R20   R(10,21)                1.4182         estimate D2E/DX2                !
 ! R21   R(11,12)                1.4228         estimate D2E/DX2                !
 ! R22   R(11,18)                1.4181         estimate D2E/DX2                !
 ! R23   R(12,19)                1.4251         estimate D2E/DX2                !
 ! R24   R(14,20)                1.3906         estimate D2E/DX2                !
 ! R25   R(14,25)                1.0842         estimate D2E/DX2                !
 ! R26   R(15,22)                1.3906         estimate D2E/DX2                !
 ! R27   R(15,23)                1.0842         estimate D2E/DX2                !
 ! R28   R(16,41)                1.5443         estimate D2E/DX2                !
 ! R29   R(16,42)                1.5479         estimate D2E/DX2                !
 ! R30   R(16,43)                1.5443         estimate D2E/DX2                !
 ! R31   R(18,35)                1.3906         estimate D2E/DX2                !
 ! R32   R(18,40)                1.0754         estimate D2E/DX2                !
 ! R33   R(19,27)                1.4073         estimate D2E/DX2                !
 ! R34   R(19,28)                1.4079         estimate D2E/DX2                !
 ! R35   R(20,26)                1.0754         estimate D2E/DX2                !
 ! R36   R(21,32)                1.3906         estimate D2E/DX2                !
 ! R37   R(21,38)                1.0753         estimate D2E/DX2                !
 ! R38   R(22,24)                1.0754         estimate D2E/DX2                !
 ! R39   R(27,29)                1.4023         estimate D2E/DX2                !
 ! R40   R(27,32)                1.3922         estimate D2E/DX2                !
 ! R41   R(28,30)                1.4039         estimate D2E/DX2                !
 ! R42   R(28,35)                1.3926         estimate D2E/DX2                !
 ! R43   R(29,31)                1.4107         estimate D2E/DX2                !
 ! R44   R(29,33)                1.0825         estimate D2E/DX2                !
 ! R45   R(30,31)                1.413          estimate D2E/DX2                !
 ! R46   R(30,36)                1.0804         estimate D2E/DX2                !
 ! R47   R(31,34)                1.5449         estimate D2E/DX2                !
 ! R48   R(32,37)                1.0842         estimate D2E/DX2                !
 ! R49   R(34,44)                1.5479         estimate D2E/DX2                !
 ! R50   R(34,45)                1.5443         estimate D2E/DX2                !
 ! R51   R(34,46)                1.5443         estimate D2E/DX2                !
 ! R52   R(35,39)                1.0842         estimate D2E/DX2                !
 ! R53   R(41,47)                1.1116         estimate D2E/DX2                !
 ! R54   R(41,48)                1.1117         estimate D2E/DX2                !
 ! R55   R(41,49)                1.1096         estimate D2E/DX2                !
 ! R56   R(42,59)                1.1116         estimate D2E/DX2                !
 ! R57   R(42,60)                1.1115         estimate D2E/DX2                !
 ! R58   R(42,61)                1.1119         estimate D2E/DX2                !
 ! R59   R(43,50)                1.1096         estimate D2E/DX2                !
 ! R60   R(43,51)                1.1117         estimate D2E/DX2                !
 ! R61   R(43,52)                1.1116         estimate D2E/DX2                !
 ! R62   R(44,56)                1.1115         estimate D2E/DX2                !
 ! R63   R(44,57)                1.1119         estimate D2E/DX2                !
 ! R64   R(44,58)                1.1116         estimate D2E/DX2                !
 ! R65   R(45,53)                1.1115         estimate D2E/DX2                !
 ! R66   R(45,54)                1.1096         estimate D2E/DX2                !
 ! R67   R(45,55)                1.1117         estimate D2E/DX2                !
 ! R68   R(46,62)                1.1116         estimate D2E/DX2                !
 ! R69   R(46,63)                1.1117         estimate D2E/DX2                !
 ! R70   R(46,64)                1.1096         estimate D2E/DX2                !
 ! A1    A(2,1,3)              117.6557         estimate D2E/DX2                !
 ! A2    A(2,1,16)             119.5423         estimate D2E/DX2                !
 ! A3    A(3,1,16)             122.802          estimate D2E/DX2                !
 ! A4    A(1,2,5)              121.4565         estimate D2E/DX2                !
 ! A5    A(1,2,17)             119.9238         estimate D2E/DX2                !
 ! A6    A(5,2,17)             118.6197         estimate D2E/DX2                !
 ! A7    A(1,3,4)              121.2243         estimate D2E/DX2                !
 ! A8    A(1,3,13)             121.0147         estimate D2E/DX2                !
 ! A9    A(4,3,13)             117.761          estimate D2E/DX2                !
 ! A10   A(3,4,6)              120.4316         estimate D2E/DX2                !
 ! A11   A(3,4,14)             120.0851         estimate D2E/DX2                !
 ! A12   A(6,4,14)             119.4833         estimate D2E/DX2                !
 ! A13   A(2,5,6)              120.3427         estimate D2E/DX2                !
 ! A14   A(2,5,15)             120.0936         estimate D2E/DX2                !
 ! A15   A(6,5,15)             119.5638         estimate D2E/DX2                !
 ! A16   A(4,6,5)              118.8893         estimate D2E/DX2                !
 ! A17   A(4,6,7)              120.5765         estimate D2E/DX2                !
 ! A18   A(5,6,7)              120.5343         estimate D2E/DX2                !
 ! A19   A(6,7,8)              119.5832         estimate D2E/DX2                !
 ! A20   A(6,7,9)              119.5849         estimate D2E/DX2                !
 ! A21   A(8,7,9)              120.8319         estimate D2E/DX2                !
 ! A22   A(7,8,10)             119.5847         estimate D2E/DX2                !
 ! A23   A(7,8,20)             118.0993         estimate D2E/DX2                !
 ! A24   A(10,8,20)            122.3159         estimate D2E/DX2                !
 ! A25   A(7,9,11)             119.5831         estimate D2E/DX2                !
 ! A26   A(7,9,22)             118.1016         estimate D2E/DX2                !
 ! A27   A(11,9,22)            122.3153         estimate D2E/DX2                !
 ! A28   A(8,10,12)            119.5834         estimate D2E/DX2                !
 ! A29   A(8,10,21)            122.3148         estimate D2E/DX2                !
 ! A30   A(12,10,21)           118.1018         estimate D2E/DX2                !
 ! A31   A(9,11,12)            119.585          estimate D2E/DX2                !
 ! A32   A(9,11,18)            122.3154         estimate D2E/DX2                !
 ! A33   A(12,11,18)           118.0996         estimate D2E/DX2                !
 ! A34   A(10,12,11)           120.8318         estimate D2E/DX2                !
 ! A35   A(10,12,19)           119.5851         estimate D2E/DX2                !
 ! A36   A(11,12,19)           119.5831         estimate D2E/DX2                !
 ! A37   A(4,14,20)            120.6366         estimate D2E/DX2                !
 ! A38   A(4,14,25)            120.5088         estimate D2E/DX2                !
 ! A39   A(20,14,25)           118.8546         estimate D2E/DX2                !
 ! A40   A(5,15,22)            120.6021         estimate D2E/DX2                !
 ! A41   A(5,15,23)            120.4961         estimate D2E/DX2                !
 ! A42   A(22,15,23)           118.9017         estimate D2E/DX2                !
 ! A43   A(1,16,41)            109.4771         estimate D2E/DX2                !
 ! A44   A(1,16,42)            113.0753         estimate D2E/DX2                !
 ! A45   A(1,16,43)            109.4808         estimate D2E/DX2                !
 ! A46   A(41,16,42)           107.5868         estimate D2E/DX2                !
 ! A47   A(41,16,43)           109.5643         estimate D2E/DX2                !
 ! A48   A(42,16,43)           107.588          estimate D2E/DX2                !
 ! A49   A(11,18,35)           121.6206         estimate D2E/DX2                !
 ! A50   A(11,18,40)           123.3161         estimate D2E/DX2                !
 ! A51   A(35,18,40)           115.0633         estimate D2E/DX2                !
 ! A52   A(12,19,27)           120.5337         estimate D2E/DX2                !
 ! A53   A(12,19,28)           120.5766         estimate D2E/DX2                !
 ! A54   A(27,19,28)           118.8897         estimate D2E/DX2                !
 ! A55   A(8,20,14)            121.6211         estimate D2E/DX2                !
 ! A56   A(8,20,26)            123.3156         estimate D2E/DX2                !
 ! A57   A(14,20,26)           115.0633         estimate D2E/DX2                !
 ! A58   A(10,21,32)           121.6123         estimate D2E/DX2                !
 ! A59   A(10,21,38)           123.3213         estimate D2E/DX2                !
 ! A60   A(32,21,38)           115.0664         estimate D2E/DX2                !
 ! A61   A(9,22,15)            121.6133         estimate D2E/DX2                !
 ! A62   A(9,22,24)            123.3208         estimate D2E/DX2                !
 ! A63   A(15,22,24)           115.0658         estimate D2E/DX2                !
 ! A64   A(19,27,29)           120.342          estimate D2E/DX2                !
 ! A65   A(19,27,32)           119.5643         estimate D2E/DX2                !
 ! A66   A(29,27,32)           120.0937         estimate D2E/DX2                !
 ! A67   A(19,28,30)           120.4318         estimate D2E/DX2                !
 ! A68   A(19,28,35)           119.483          estimate D2E/DX2                !
 ! A69   A(30,28,35)           120.0851         estimate D2E/DX2                !
 ! A70   A(27,29,31)           121.4567         estimate D2E/DX2                !
 ! A71   A(27,29,33)           118.6191         estimate D2E/DX2                !
 ! A72   A(31,29,33)           119.9243         estimate D2E/DX2                !
 ! A73   A(28,30,31)           121.2237         estimate D2E/DX2                !
 ! A74   A(28,30,36)           117.7612         estimate D2E/DX2                !
 ! A75   A(31,30,36)           121.015          estimate D2E/DX2                !
 ! A76   A(29,31,30)           117.656          estimate D2E/DX2                !
 ! A77   A(29,31,34)           119.5423         estimate D2E/DX2                !
 ! A78   A(30,31,34)           122.8016         estimate D2E/DX2                !
 ! A79   A(21,32,27)           120.6028         estimate D2E/DX2                !
 ! A80   A(21,32,37)           118.9004         estimate D2E/DX2                !
 ! A81   A(27,32,37)           120.4968         estimate D2E/DX2                !
 ! A82   A(31,34,44)           113.0751         estimate D2E/DX2                !
 ! A83   A(31,34,45)           109.4805         estimate D2E/DX2                !
 ! A84   A(31,34,46)           109.4775         estimate D2E/DX2                !
 ! A85   A(44,34,45)           107.5877         estimate D2E/DX2                !
 ! A86   A(44,34,46)           107.587          estimate D2E/DX2                !
 ! A87   A(45,34,46)           109.5644         estimate D2E/DX2                !
 ! A88   A(18,35,28)           120.6371         estimate D2E/DX2                !
 ! A89   A(18,35,39)           118.8548         estimate D2E/DX2                !
 ! A90   A(28,35,39)           120.5081         estimate D2E/DX2                !
 ! A91   A(16,41,47)           110.3605         estimate D2E/DX2                !
 ! A92   A(16,41,48)           110.7564         estimate D2E/DX2                !
 ! A93   A(16,41,49)           111.802          estimate D2E/DX2                !
 ! A94   A(47,41,48)           108.2793         estimate D2E/DX2                !
 ! A95   A(47,41,49)           108.1861         estimate D2E/DX2                !
 ! A96   A(48,41,49)           107.3227         estimate D2E/DX2                !
 ! A97   A(16,42,59)           110.9624         estimate D2E/DX2                !
 ! A98   A(16,42,60)           110.9629         estimate D2E/DX2                !
 ! A99   A(16,42,61)           110.759          estimate D2E/DX2                !
 ! A100  A(59,42,60)           109.1825         estimate D2E/DX2                !
 ! A101  A(59,42,61)           107.419          estimate D2E/DX2                !
 ! A102  A(60,42,61)           107.4205         estimate D2E/DX2                !
 ! A103  A(16,43,50)           111.8015         estimate D2E/DX2                !
 ! A104  A(16,43,51)           110.7552         estimate D2E/DX2                !
 ! A105  A(16,43,52)           110.3605         estimate D2E/DX2                !
 ! A106  A(50,43,51)           107.3222         estimate D2E/DX2                !
 ! A107  A(50,43,52)           108.1874         estimate D2E/DX2                !
 ! A108  A(51,43,52)           108.2802         estimate D2E/DX2                !
 ! A109  A(34,44,56)           110.9635         estimate D2E/DX2                !
 ! A110  A(34,44,57)           110.7591         estimate D2E/DX2                !
 ! A111  A(34,44,58)           110.9623         estimate D2E/DX2                !
 ! A112  A(56,44,57)           107.4201         estimate D2E/DX2                !
 ! A113  A(56,44,58)           109.183          estimate D2E/DX2                !
 ! A114  A(57,44,58)           107.4183         estimate D2E/DX2                !
 ! A115  A(34,45,53)           110.361          estimate D2E/DX2                !
 ! A116  A(34,45,54)           111.801          estimate D2E/DX2                !
 ! A117  A(34,45,55)           110.7553         estimate D2E/DX2                !
 ! A118  A(53,45,54)           108.187          estimate D2E/DX2                !
 ! A119  A(53,45,55)           108.2803         estimate D2E/DX2                !
 ! A120  A(54,45,55)           107.3224         estimate D2E/DX2                !
 ! A121  A(34,46,62)           110.3601         estimate D2E/DX2                !
 ! A122  A(34,46,63)           110.7562         estimate D2E/DX2                !
 ! A123  A(34,46,64)           111.8018         estimate D2E/DX2                !
 ! A124  A(62,46,63)           108.2805         estimate D2E/DX2                !
 ! A125  A(62,46,64)           108.1857         estimate D2E/DX2                !
 ! A126  A(63,46,64)           107.3228         estimate D2E/DX2                !
 ! D1    D(3,1,2,5)             -0.0067         estimate D2E/DX2                !
 ! D2    D(3,1,2,17)           179.999          estimate D2E/DX2                !
 ! D3    D(16,1,2,5)           179.9886         estimate D2E/DX2                !
 ! D4    D(16,1,2,17)           -0.0056         estimate D2E/DX2                !
 ! D5    D(2,1,3,4)              0.0066         estimate D2E/DX2                !
 ! D6    D(2,1,3,13)          -179.999          estimate D2E/DX2                !
 ! D7    D(16,1,3,4)          -179.9885         estimate D2E/DX2                !
 ! D8    D(16,1,3,13)            0.0059         estimate D2E/DX2                !
 ! D9    D(2,1,16,41)          -60.0605         estimate D2E/DX2                !
 ! D10   D(2,1,16,42)         -179.9967         estimate D2E/DX2                !
 ! D11   D(2,1,16,43)           60.063          estimate D2E/DX2                !
 ! D12   D(3,1,16,41)          119.9346         estimate D2E/DX2                !
 ! D13   D(3,1,16,42)           -0.0016         estimate D2E/DX2                !
 ! D14   D(3,1,16,43)         -119.9419         estimate D2E/DX2                !
 ! D15   D(1,2,5,6)              0.0011         estimate D2E/DX2                !
 ! D16   D(1,2,5,15)          -179.9951         estimate D2E/DX2                !
 ! D17   D(17,2,5,6)           179.9955         estimate D2E/DX2                !
 ! D18   D(17,2,5,15)           -0.0008         estimate D2E/DX2                !
 ! D19   D(1,3,4,6)             -0.0011         estimate D2E/DX2                !
 ! D20   D(1,3,4,14)           179.9949         estimate D2E/DX2                !
 ! D21   D(13,3,4,6)          -179.9956         estimate D2E/DX2                !
 ! D22   D(13,3,4,14)            0.0003         estimate D2E/DX2                !
 ! D23   D(3,4,6,5)             -0.0046         estimate D2E/DX2                !
 ! D24   D(3,4,6,7)            179.9908         estimate D2E/DX2                !
 ! D25   D(14,4,6,5)           179.9994         estimate D2E/DX2                !
 ! D26   D(14,4,6,7)            -0.0052         estimate D2E/DX2                !
 ! D27   D(3,4,14,20)         -179.9907         estimate D2E/DX2                !
 ! D28   D(3,4,14,25)            0.0048         estimate D2E/DX2                !
 ! D29   D(6,4,14,20)            0.0053         estimate D2E/DX2                !
 ! D30   D(6,4,14,25)         -179.9992         estimate D2E/DX2                !
 ! D31   D(2,5,6,4)              0.0046         estimate D2E/DX2                !
 ! D32   D(2,5,6,7)           -179.9908         estimate D2E/DX2                !
 ! D33   D(15,5,6,4)          -179.9991         estimate D2E/DX2                !
 ! D34   D(15,5,6,7)             0.0055         estimate D2E/DX2                !
 ! D35   D(2,5,15,22)          179.991          estimate D2E/DX2                !
 ! D36   D(2,5,15,23)           -0.0049         estimate D2E/DX2                !
 ! D37   D(6,5,15,22)           -0.0053         estimate D2E/DX2                !
 ! D38   D(6,5,15,23)          179.9989         estimate D2E/DX2                !
 ! D39   D(4,6,7,8)             -0.0005         estimate D2E/DX2                !
 ! D40   D(4,6,7,9)           -179.9954         estimate D2E/DX2                !
 ! D41   D(5,6,7,8)            179.9948         estimate D2E/DX2                !
 ! D42   D(5,6,7,9)             -0.0001         estimate D2E/DX2                !
 ! D43   D(6,7,8,10)          -179.9893         estimate D2E/DX2                !
 ! D44   D(6,7,8,20)             0.0059         estimate D2E/DX2                !
 ! D45   D(9,7,8,10)             0.0056         estimate D2E/DX2                !
 ! D46   D(9,7,8,20)          -179.9992         estimate D2E/DX2                !
 ! D47   D(6,7,9,11)           179.9889         estimate D2E/DX2                !
 ! D48   D(6,7,9,22)            -0.0052         estimate D2E/DX2                !
 ! D49   D(8,7,9,11)            -0.006          estimate D2E/DX2                !
 ! D50   D(8,7,9,22)           179.9999         estimate D2E/DX2                !
 ! D51   D(7,8,10,12)            0.0007         estimate D2E/DX2                !
 ! D52   D(7,8,10,21)          179.994          estimate D2E/DX2                !
 ! D53   D(20,8,10,12)        -179.9944         estimate D2E/DX2                !
 ! D54   D(20,8,10,21)          -0.001          estimate D2E/DX2                !
 ! D55   D(7,8,20,14)           -0.006          estimate D2E/DX2                !
 ! D56   D(7,8,20,26)          179.999          estimate D2E/DX2                !
 ! D57   D(10,8,20,14)         179.9891         estimate D2E/DX2                !
 ! D58   D(10,8,20,26)          -0.0059         estimate D2E/DX2                !
 ! D59   D(7,9,11,12)            0.0001         estimate D2E/DX2                !
 ! D60   D(7,9,11,18)         -179.9945         estimate D2E/DX2                !
 ! D61   D(22,9,11,12)         179.994          estimate D2E/DX2                !
 ! D62   D(22,9,11,18)          -0.0006         estimate D2E/DX2                !
 ! D63   D(7,9,22,15)            0.0055         estimate D2E/DX2                !
 ! D64   D(7,9,22,24)         -179.9994         estimate D2E/DX2                !
 ! D65   D(11,9,22,15)        -179.9885         estimate D2E/DX2                !
 ! D66   D(11,9,22,24)           0.0066         estimate D2E/DX2                !
 ! D67   D(8,10,12,11)          -0.0066         estimate D2E/DX2                !
 ! D68   D(8,10,12,19)         179.9888         estimate D2E/DX2                !
 ! D69   D(21,10,12,11)        179.9998         estimate D2E/DX2                !
 ! D70   D(21,10,12,19)         -0.0048         estimate D2E/DX2                !
 ! D71   D(8,10,21,32)        -179.9883         estimate D2E/DX2                !
 ! D72   D(8,10,21,38)           0.0073         estimate D2E/DX2                !
 ! D73   D(12,10,21,32)          0.0052         estimate D2E/DX2                !
 ! D74   D(12,10,21,38)       -179.9992         estimate D2E/DX2                !
 ! D75   D(9,11,12,10)           0.0062         estimate D2E/DX2                !
 ! D76   D(9,11,12,19)        -179.9892         estimate D2E/DX2                !
 ! D77   D(18,11,12,10)       -179.999          estimate D2E/DX2                !
 ! D78   D(18,11,12,19)          0.0056         estimate D2E/DX2                !
 ! D79   D(9,11,18,35)         179.9886         estimate D2E/DX2                !
 ! D80   D(9,11,18,40)          -0.0063         estimate D2E/DX2                !
 ! D81   D(12,11,18,35)         -0.0061         estimate D2E/DX2                !
 ! D82   D(12,11,18,40)        179.9991         estimate D2E/DX2                !
 ! D83   D(10,12,19,27)         -0.0003         estimate D2E/DX2                !
 ! D84   D(10,12,19,28)       -179.9954         estimate D2E/DX2                !
 ! D85   D(11,12,19,27)        179.9951         estimate D2E/DX2                !
 ! D86   D(11,12,19,28)          0.0            estimate D2E/DX2                !
 ! D87   D(4,14,20,8)            0.0004         estimate D2E/DX2                !
 ! D88   D(4,14,20,26)         179.9958         estimate D2E/DX2                !
 ! D89   D(25,14,20,8)        -179.9952         estimate D2E/DX2                !
 ! D90   D(25,14,20,26)          0.0002         estimate D2E/DX2                !
 ! D91   D(5,15,22,9)           -0.0002         estimate D2E/DX2                !
 ! D92   D(5,15,22,24)        -179.9957         estimate D2E/DX2                !
 ! D93   D(23,15,22,9)         179.9957         estimate D2E/DX2                !
 ! D94   D(23,15,22,24)          0.0002         estimate D2E/DX2                !
 ! D95   D(1,16,41,47)         -60.2697         estimate D2E/DX2                !
 ! D96   D(1,16,41,48)         179.8347         estimate D2E/DX2                !
 ! D97   D(1,16,41,49)          60.1944         estimate D2E/DX2                !
 ! D98   D(42,16,41,47)         62.975          estimate D2E/DX2                !
 ! D99   D(42,16,41,48)        -56.9207         estimate D2E/DX2                !
 ! D100  D(42,16,41,49)       -176.561          estimate D2E/DX2                !
 ! D101  D(43,16,41,47)        179.6579         estimate D2E/DX2                !
 ! D102  D(43,16,41,48)         59.7622         estimate D2E/DX2                !
 ! D103  D(43,16,41,49)        -59.8781         estimate D2E/DX2                !
 ! D104  D(1,16,42,59)          60.7844         estimate D2E/DX2                !
 ! D105  D(1,16,42,60)         -60.7886         estimate D2E/DX2                !
 ! D106  D(1,16,42,61)         179.9969         estimate D2E/DX2                !
 ! D107  D(41,16,42,59)        -60.2286         estimate D2E/DX2                !
 ! D108  D(41,16,42,60)        178.1984         estimate D2E/DX2                !
 ! D109  D(41,16,42,61)         58.9838         estimate D2E/DX2                !
 ! D110  D(43,16,42,59)       -178.197          estimate D2E/DX2                !
 ! D111  D(43,16,42,60)         60.23           estimate D2E/DX2                !
 ! D112  D(43,16,42,61)        -58.9845         estimate D2E/DX2                !
 ! D113  D(1,16,43,50)         -60.1924         estimate D2E/DX2                !
 ! D114  D(1,16,43,51)        -179.8309         estimate D2E/DX2                !
 ! D115  D(1,16,43,52)          60.2731         estimate D2E/DX2                !
 ! D116  D(41,16,43,50)         59.8778         estimate D2E/DX2                !
 ! D117  D(41,16,43,51)        -59.7607         estimate D2E/DX2                !
 ! D118  D(41,16,43,52)       -179.6568         estimate D2E/DX2                !
 ! D119  D(42,16,43,50)        176.5599         estimate D2E/DX2                !
 ! D120  D(42,16,43,51)         56.9213         estimate D2E/DX2                !
 ! D121  D(42,16,43,52)        -62.9747         estimate D2E/DX2                !
 ! D122  D(11,18,35,28)          0.0007         estimate D2E/DX2                !
 ! D123  D(11,18,35,39)       -179.9957         estimate D2E/DX2                !
 ! D124  D(40,18,35,28)        179.9959         estimate D2E/DX2                !
 ! D125  D(40,18,35,39)         -0.0005         estimate D2E/DX2                !
 ! D126  D(12,19,27,29)       -179.9906         estimate D2E/DX2                !
 ! D127  D(12,19,27,32)          0.0054         estimate D2E/DX2                !
 ! D128  D(28,19,27,29)          0.0045         estimate D2E/DX2                !
 ! D129  D(28,19,27,32)       -179.9995         estimate D2E/DX2                !
 ! D130  D(12,19,28,30)        179.9906         estimate D2E/DX2                !
 ! D131  D(12,19,28,35)         -0.0055         estimate D2E/DX2                !
 ! D132  D(27,19,28,30)         -0.0046         estimate D2E/DX2                !
 ! D133  D(27,19,28,35)        179.9994         estimate D2E/DX2                !
 ! D134  D(10,21,32,27)         -0.0002         estimate D2E/DX2                !
 ! D135  D(10,21,32,37)        179.996          estimate D2E/DX2                !
 ! D136  D(38,21,32,27)       -179.9962         estimate D2E/DX2                !
 ! D137  D(38,21,32,37)          0.0            estimate D2E/DX2                !
 ! D138  D(19,27,29,31)          0.0008         estimate D2E/DX2                !
 ! D139  D(19,27,29,33)        179.9955         estimate D2E/DX2                !
 ! D140  D(32,27,29,31)       -179.9952         estimate D2E/DX2                !
 ! D141  D(32,27,29,33)         -0.0004         estimate D2E/DX2                !
 ! D142  D(19,27,32,21)         -0.0051         estimate D2E/DX2                !
 ! D143  D(19,27,32,37)        179.9988         estimate D2E/DX2                !
 ! D144  D(29,27,32,21)        179.9909         estimate D2E/DX2                !
 ! D145  D(29,27,32,37)         -0.0053         estimate D2E/DX2                !
 ! D146  D(19,28,30,31)         -0.0007         estimate D2E/DX2                !
 ! D147  D(19,28,30,36)       -179.9961         estimate D2E/DX2                !
 ! D148  D(35,28,30,31)        179.9953         estimate D2E/DX2                !
 ! D149  D(35,28,30,36)          0.0            estimate D2E/DX2                !
 ! D150  D(19,28,35,18)          0.0051         estimate D2E/DX2                !
 ! D151  D(19,28,35,39)       -179.9985         estimate D2E/DX2                !
 ! D152  D(30,28,35,18)       -179.9909         estimate D2E/DX2                !
 ! D153  D(30,28,35,39)          0.0054         estimate D2E/DX2                !
 ! D154  D(27,29,31,30)         -0.0059         estimate D2E/DX2                !
 ! D155  D(27,29,31,34)        179.9885         estimate D2E/DX2                !
 ! D156  D(33,29,31,30)        179.9994         estimate D2E/DX2                !
 ! D157  D(33,29,31,34)         -0.0062         estimate D2E/DX2                !
 ! D158  D(28,30,31,29)          0.0058         estimate D2E/DX2                !
 ! D159  D(28,30,31,34)       -179.9883         estimate D2E/DX2                !
 ! D160  D(36,30,31,29)       -179.9989         estimate D2E/DX2                !
 ! D161  D(36,30,31,34)          0.0069         estimate D2E/DX2                !
 ! D162  D(29,31,34,44)       -179.9967         estimate D2E/DX2                !
 ! D163  D(29,31,34,45)         60.0636         estimate D2E/DX2                !
 ! D164  D(29,31,34,46)        -60.0601         estimate D2E/DX2                !
 ! D165  D(30,31,34,44)         -0.0026         estimate D2E/DX2                !
 ! D166  D(30,31,34,45)       -119.9423         estimate D2E/DX2                !
 ! D167  D(30,31,34,46)        119.934          estimate D2E/DX2                !
 ! D168  D(31,34,44,56)        -60.7883         estimate D2E/DX2                !
 ! D169  D(31,34,44,57)        179.9971         estimate D2E/DX2                !
 ! D170  D(31,34,44,58)         60.7856         estimate D2E/DX2                !
 ! D171  D(45,34,44,56)         60.2296         estimate D2E/DX2                !
 ! D172  D(45,34,44,57)        -58.9849         estimate D2E/DX2                !
 ! D173  D(45,34,44,58)       -178.1964         estimate D2E/DX2                !
 ! D174  D(46,34,44,56)        178.198          estimate D2E/DX2                !
 ! D175  D(46,34,44,57)         58.9835         estimate D2E/DX2                !
 ! D176  D(46,34,44,58)        -60.228          estimate D2E/DX2                !
 ! D177  D(31,34,45,53)         60.2727         estimate D2E/DX2                !
 ! D178  D(31,34,45,54)        -60.1923         estimate D2E/DX2                !
 ! D179  D(31,34,45,55)       -179.8308         estimate D2E/DX2                !
 ! D180  D(44,34,45,53)        -62.9744         estimate D2E/DX2                !
 ! D181  D(44,34,45,54)        176.5606         estimate D2E/DX2                !
 ! D182  D(44,34,45,55)         56.9221         estimate D2E/DX2                !
 ! D183  D(46,34,45,53)       -179.6566         estimate D2E/DX2                !
 ! D184  D(46,34,45,54)         59.8783         estimate D2E/DX2                !
 ! D185  D(46,34,45,55)        -59.7601         estimate D2E/DX2                !
 ! D186  D(31,34,46,62)        -60.2692         estimate D2E/DX2                !
 ! D187  D(31,34,46,63)        179.834          estimate D2E/DX2                !
 ! D188  D(31,34,46,64)         60.194          estimate D2E/DX2                !
 ! D189  D(44,34,46,62)         62.9756         estimate D2E/DX2                !
 ! D190  D(44,34,46,63)        -56.9211         estimate D2E/DX2                !
 ! D191  D(44,34,46,64)       -176.5612         estimate D2E/DX2                !
 ! D192  D(45,34,46,62)        179.6583         estimate D2E/DX2                !
 ! D193  D(45,34,46,63)         59.7616         estimate D2E/DX2                !
 ! D194  D(45,34,46,64)        -59.8785         estimate D2E/DX2                !
 --------------------------------------------------------------------------------
 Trust Radius=3.00D-01 FncErr=1.00D-07 GrdErr=1.00D-06 EigMax=2.50D+02 EigMin=1.00D-04
 Number of steps in this run=    384 maximum allowed number of steps=    384.
 GradGradGradGradGradGradGradGradGradGradGradGradGradGradGradGradGradGrad

 Stoichiometry    C34H30
 Framework group  C1[X(C34H30)]
 Deg. of freedom   186
 Full point group                 C1      NOp   1
 Largest Abelian subgroup         C1      NOp   1
 Largest concise Abelian subgroup C1      NOp   1
                         Standard orientation:                         
 ---------------------------------------------------------------------
 Center     Atomic      Atomic             Coordinates (Angstroms)
 Number     Number       Type             X           Y           Z
 ---------------------------------------------------------------------
      1          6           0        5.689576    0.033223    0.000295
      2          6           0        4.964834   -1.177056    0.000002
      3          6           0        4.952744    1.238918   -0.000004
      4          6           0        3.548889    1.233873   -0.000434
      5          6           0        3.562561   -1.190331   -0.000426
      6          6           0        2.840166    0.017418   -0.000598
      7          6           0        1.415069    0.008693   -0.000836
      8          6           0        0.705087    1.241698   -0.000896
      9          6           0        0.720133   -1.233012   -0.000901
     10          6           0       -0.720134    1.233010   -0.000903
     11          6           0       -0.705088   -1.241693   -0.000899
     12          6           0       -1.415071   -0.008691   -0.000834
     13          1           0        5.452543    2.196774    0.000181
     14          6           0        2.846462    2.436365   -0.000614
     15          6           0        2.875932   -2.401419   -0.000604
     16          6           0        7.234041   -0.003761    0.001030
     17          1           0        5.492322   -2.122354    0.000201
     18          6           0       -1.455864   -2.444755   -0.000847
     19          6           0       -2.840171   -0.017420   -0.000598
     20          6           0        1.455867    2.444753   -0.000845
     21          6           0       -1.485562    2.426935   -0.000837
     22          6           0        1.485562   -2.426925   -0.000839
     23          1           0        3.417259   -3.340813   -0.000493
     24          1           0        1.047920   -3.409201   -0.000889
     25          1           0        3.375395    3.382773   -0.000504
     26          1           0        1.006211    3.421580   -0.000900
     27          6           0       -3.562557    1.190334   -0.000426
     28          6           0       -3.548893   -1.233874   -0.000429
     29          6           0       -4.964835    1.177054    0.000004
     30          6           0       -4.952744   -1.238926    0.000003
     31          6           0       -5.689573   -0.033221    0.000292
     32          6           0       -2.875937    2.401411   -0.000601
     33          1           0       -5.492316    2.122355    0.000201
     34          6           0       -7.234039    0.003762    0.001033
     35          6           0       -2.846460   -2.436363   -0.000609
     36          1           0       -5.452538   -2.196773    0.000184
     37          1           0       -3.417253    3.340813   -0.000493
     38          1           0       -1.047925    3.409203   -0.000893
     39          1           0       -3.375404   -3.382773   -0.000508
     40          1           0       -1.006212   -3.421582   -0.000904
     41          6           0        7.730816   -0.742459    1.262938
     42          6           0        7.874647    1.405367    0.001357
     43          6           0        7.732105   -0.742490   -1.260333
     44          6           0       -7.874638   -1.405368    0.001353
     45          6           0       -7.732104    0.742489   -1.260338
     46          6           0       -7.730821    0.742459    1.262939
     47          1           0        7.384564   -0.217785    2.179667
     48          1           0        8.841544   -0.784048    1.283479
     49          1           0        7.360282   -1.787704    1.301285
     50          1           0        7.361611   -1.787737   -1.299019
     51          1           0        8.842857   -0.784092   -1.279701
     52          1           0        7.386812   -0.217836   -2.177430
     53          1           0       -7.386813    0.217842   -2.177433
     54          1           0       -7.361602    1.787731   -1.299021
     55          1           0       -8.842860    0.784095   -1.279704
     56          1           0       -7.578501   -1.977045   -0.904749
     57          1           0       -8.984203   -1.333854    0.001937
     58          1           0       -7.577577   -1.977034    0.907170
     59          1           0        7.577575    1.977038    0.907169
     60          1           0        7.578505    1.977042   -0.904746
     61          1           0        8.984202    1.333847    0.001941
     62          1           0       -7.384559    0.217788    2.179663
     63          1           0       -8.841549    0.784051    1.283469
     64          1           0       -7.360285    1.787699    1.301287
 ---------------------------------------------------------------------
 Rotational constants (GHZ):           0.4543714           0.0487262           0.0448846
 Standard basis: 6-31G(d) (6D, 7F)
 There are   570 symmetry adapted cartesian basis functions of A   symmetry.
 There are   570 symmetry adapted basis functions of A   symmetry.
   570 basis functions,  1072 primitive gaussians,   570 cartesian basis functions
   117 alpha electrons      117 beta electrons
       nuclear repulsion energy      3188.0729837832 Hartrees.
 NAtoms=   64 NActive=   64 NUniq=   64 SFac= 1.00D+00 NAtFMM=   60 NAOKFM=T Big=T
 Integral buffers will be    131072 words long.
 Raffenetti 2 integral format.
 Two-electron integral symmetry is turned on.
 One-electron integrals computed using PRISM.
 NBasis=   570 RedAO= T EigKep=  7.98D-05  NBF=   570
 NBsUse=   570 1.00D-06 EigRej= -1.00D+00 NBFU=   570
 ExpMin= 1.61D-01 ExpMax= 3.05D+03 ExpMxC= 4.57D+02 IAcc=3 IRadAn=         5 AccDes= 0.00D+00
 Harris functional with IExCor=  402 and IRadAn=       5 diagonalized for initial guess.
 HarFok:  IExCor=  402 AccDes= 0.00D+00 IRadAn=         5 IDoV= 1 UseB2=F ITyADJ=14
 ICtDFT=  3500011 ScaDFX=  1.000000  1.000000  1.000000  1.000000
 FoFCou: FMM=F IPFlag=           0 FMFlag=      100000 FMFlg1=        2001
         NFxFlg=           0 DoJE=T BraDBF=F KetDBF=T FulRan=T
         wScrn=  0.000000 ICntrl=       500 IOpCl=  0 I1Cent=   200000004 NGrid=           0
         NMat0=    1 NMatS0=      1 NMatT0=    0 NMatD0=    1 NMtDS0=    0 NMtDT0=    0
 Petite list used in FoFCou.
 Requested convergence on RMS density matrix=1.00D-08 within 128 cycles.
 Requested convergence on MAX density matrix=1.00D-06.
 Requested convergence on             energy=1.00D-06.
 No special actions if energy rises.
 Integral accuracy reduced to 1.0D-05 until final iterations.
 Initial convergence to 1.0D-05 achieved.  Increase integral accuracy.
 SCF Done:  E(RB3LYP) =  -1313.78542970     A.U. after   15 cycles
            NFock= 15  Conv=0.45D-08     -V/T= 2.0097

 **********************************************************************

            Population analysis using the SCF Density.

 **********************************************************************

 Orbital symmetries:
       Occupied  (A) (A) (A) (A) (A) (A) (A) (A) (A) (A) (A) (A)
                 (A) (A) (A) (A) (A) (A) (A) (A) (A) (A) (A) (A)
                 (A) (A) (A) (A) (A) (A) (A) (A) (A) (A) (A) (A)
                 (A) (A) (A) (A) (A) (A) (A) (A) (A) (A) (A) (A)
                 (A) (A) (A) (A) (A) (A) (A) (A) (A) (A) (A) (A)
                 (A) (A) (A) (A) (A) (A) (A) (A) (A) (A) (A) (A)
                 (A) (A) (A) (A) (A) (A) (A) (A) (A) (A) (A) (A)
                 (A) (A) (A) (A) (A) (A) (A) (A) (A) (A) (A) (A)
                 (A) (A) (A) (A) (A) (A) (A) (A) (A) (A) (A) (A)
                 (A) (A) (A) (A) (A) (A) (A) (A) (A)
       Virtual   (A) (A) (A) (A) (A) (A) (A) (A) (A) (A) (A) (A)
                 (A) (A) (A) (A) (A) (A) (A) (A) (A) (A) (A) (A)
                 (A) (A) (A) (A) (A) (A) (A) (A) (A) (A) (A) (A)
                 (A) (A) (A) (A) (A) (A) (A) (A) (A) (A) (A) (A)
                 (A) (A) (A) (A) (A) (A) (A) (A) (A) (A) (A) (A)
                 (A) (A) (A) (A) (A) (A) (A) (A) (A) (A) (A) (A)
                 (A) (A) (A) (A) (A) (A) (A) (A) (A) (A) (A) (A)
                 (A) (A) (A) (A) (A) (A) (A) (A) (A) (A) (A) (A)
                 (A) (A) (A) (A) (A) (A) (A) (A) (A) (A) (A) (A)
                 (A) (A) (A) (A) (A) (A) (A) (A) (A) (A) (A) (A)
                 (A) (A) (A) (A) (A) (A) (A) (A) (A) (A) (A) (A)
                 (A) (A) (A) (A) (A) (A) (A) (A) (A) (A) (A) (A)
                 (A) (A) (A) (A) (A) (A) (A) (A) (A) (A) (A) (A)
                 (A) (A) (A) (A) (A) (A) (A) (A) (A) (A) (A) (A)
                 (A) (A) (A) (A) (A) (A) (A) (A) (A) (A) (A) (A)
                 (A) (A) (A) (A) (A) (A) (A) (A) (A) (A) (A) (A)
                 (A) (A) (A) (A) (A) (A) (A) (A) (A) (A) (A) (A)
                 (A) (A) (A) (A) (A) (A) (A) (A) (A) (A) (A) (A)
                 (A) (A) (A) (A) (A) (A) (A) (A) (A) (A) (A) (A)
                 (A) (A) (A) (A) (A) (A) (A) (A) (A) (A) (A) (A)
                 (A) (A) (A) (A) (A) (A) (A) (A) (A) (A) (A) (A)
                 (A) (A) (A) (A) (A) (A) (A) (A) (A) (A) (A) (A)
                 (A) (A) (A) (A) (A) (A) (A) (A) (A) (A) (A) (A)
                 (A) (A) (A) (A) (A) (A) (A) (A) (A) (A) (A) (A)
                 (A) (A) (A) (A) (A) (A) (A) (A) (A) (A) (A) (A)
                 (A) (A) (A) (A) (A) (A) (A) (A) (A) (A) (A) (A)
                 (A) (A) (A) (A) (A) (A) (A) (A) (A) (A) (A) (A)
                 (A) (A) (A) (A) (A) (A) (A) (A) (A) (A) (A) (A)
                 (A) (A) (A) (A) (A) (A) (A) (A) (A) (A) (A) (A)
                 (A) (A) (A) (A) (A) (A) (A) (A) (A) (A) (A) (A)
                 (A) (A) (A) (A) (A) (A) (A) (A) (A) (A) (A) (A)
                 (A) (A) (A) (A) (A) (A) (A) (A) (A) (A) (A) (A)
                 (A) (A) (A) (A) (A) (A) (A) (A) (A) (A) (A) (A)
                 (A) (A) (A) (A) (A) (A) (A) (A) (A) (A) (A) (A)
                 (A) (A) (A) (A) (A) (A) (A) (A) (A) (A) (A) (A)
                 (A) (A) (A) (A) (A) (A) (A) (A) (A) (A) (A) (A)
                 (A) (A) (A) (A) (A) (A) (A) (A) (A) (A) (A) (A)
                 (A) (A) (A) (A) (A) (A) (A) (A) (A)
 The electronic state is 1-A.
 Alpha  occ. eigenvalues --  -10.20455 -10.20455 -10.19690 -10.19684 -10.19649
 Alpha  occ. eigenvalues --  -10.19640 -10.19551 -10.19551 -10.19524 -10.19522
 Alpha  occ. eigenvalues --  -10.18970 -10.18970 -10.18884 -10.18884 -10.18848
 Alpha  occ. eigenvalues --  -10.18847 -10.18791 -10.18791 -10.18778 -10.18778
 Alpha  occ. eigenvalues --  -10.18601 -10.18601 -10.18594 -10.18594 -10.18446
 Alpha  occ. eigenvalues --  -10.18446 -10.18444 -10.18444 -10.17930 -10.17930
 Alpha  occ. eigenvalues --  -10.17802 -10.17802 -10.17802 -10.17802  -0.89890
 Alpha  occ. eigenvalues --   -0.88274  -0.85179  -0.83775  -0.83129  -0.82045
 Alpha  occ. eigenvalues --   -0.81486  -0.78854  -0.77249  -0.75617  -0.74155
 Alpha  occ. eigenvalues --   -0.73779  -0.73309  -0.71301  -0.69323  -0.68073
 Alpha  occ. eigenvalues --   -0.67929  -0.67929  -0.67487  -0.64302  -0.63265
 Alpha  occ. eigenvalues --   -0.63116  -0.61634  -0.60783  -0.60348  -0.59022
 Alpha  occ. eigenvalues --   -0.55767  -0.53638  -0.52733  -0.52447  -0.51638
 Alpha  occ. eigenvalues --   -0.49733  -0.49508  -0.49058  -0.48547  -0.47639
 Alpha  occ. eigenvalues --   -0.47341  -0.44723  -0.44428  -0.43875  -0.43679
 Alpha  occ. eigenvalues --   -0.43621  -0.43608  -0.42736  -0.41807  -0.41468
 Alpha  occ. eigenvalues --   -0.41451  -0.41371  -0.40525  -0.40446  -0.39951
 Alpha  occ. eigenvalues --   -0.39110  -0.39007  -0.38939  -0.38551  -0.38406
 Alpha  occ. eigenvalues --   -0.37789  -0.37391  -0.37074  -0.36834  -0.36677
 Alpha  occ. eigenvalues --   -0.36246  -0.36222  -0.35258  -0.34952  -0.34171
 Alpha  occ. eigenvalues --   -0.33934  -0.33293  -0.32902  -0.32691  -0.32238
 Alpha  occ. eigenvalues --   -0.31744  -0.31297  -0.30962  -0.30745  -0.30031
 Alpha  occ. eigenvalues --   -0.27831  -0.25554  -0.24698  -0.24428  -0.22753
 Alpha  occ. eigenvalues --   -0.21633  -0.16876
 Alpha virt. eigenvalues --   -0.07541  -0.02822  -0.01787  -0.01176   0.00509
 Alpha virt. eigenvalues --    0.02331   0.03344   0.07990   0.07995   0.08132
 Alpha virt. eigenvalues --    0.09607   0.09630   0.10702   0.11200   0.11816
 Alpha virt. eigenvalues --    0.12356   0.12825   0.12928   0.13169   0.13887
 Alpha virt. eigenvalues --    0.14258   0.14281   0.14489   0.15034   0.15090
 Alpha virt. eigenvalues --    0.15582   0.15872   0.15889   0.16501   0.17617
 Alpha virt. eigenvalues --    0.18300   0.18425   0.18508   0.19561   0.19843
 Alpha virt. eigenvalues --    0.21245   0.21445   0.21562   0.21688   0.21849
 Alpha virt. eigenvalues --    0.22199   0.22441   0.22843   0.23184   0.23384
 Alpha virt. eigenvalues --    0.23759   0.24222   0.24516   0.25907   0.25914
 Alpha virt. eigenvalues --    0.26534   0.26754   0.26755   0.28065   0.28095
 Alpha virt. eigenvalues --    0.28255   0.29425   0.30203   0.30451   0.32390
 Alpha virt. eigenvalues --    0.32481   0.33752   0.35827   0.36926   0.37279
 Alpha virt. eigenvalues --    0.37294   0.37726   0.37994   0.41288   0.45436
 Alpha virt. eigenvalues --    0.46126   0.46175   0.47944   0.48372   0.49266
 Alpha virt. eigenvalues --    0.49910   0.49948   0.50501   0.50874   0.50892
 Alpha virt. eigenvalues --    0.50968   0.51099   0.51608   0.52531   0.52906
 Alpha virt. eigenvalues --    0.53105   0.53384   0.53768   0.54358   0.54535
 Alpha virt. eigenvalues --    0.54963   0.55229   0.55877   0.56084   0.56636
 Alpha virt. eigenvalues --    0.57366   0.57508   0.57609   0.57717   0.57764
 Alpha virt. eigenvalues --    0.58111   0.58156   0.59144   0.59276   0.59310
 Alpha virt. eigenvalues --    0.60068   0.60160   0.60543   0.60595   0.61273
 Alpha virt. eigenvalues --    0.61410   0.61546   0.61777   0.61823   0.62414
 Alpha virt. eigenvalues --    0.62792   0.62837   0.63446   0.63525   0.65372
 Alpha virt. eigenvalues --    0.65427   0.65836   0.66035   0.67522   0.68451
 Alpha virt. eigenvalues --    0.69061   0.69478   0.69639   0.70015   0.71337
 Alpha virt. eigenvalues --    0.71993   0.72342   0.72516   0.72619   0.72848
 Alpha virt. eigenvalues --    0.75971   0.76056   0.77242   0.77888   0.79337
 Alpha virt. eigenvalues --    0.79809   0.80356   0.80582   0.80829   0.81476
 Alpha virt. eigenvalues --    0.81701   0.82128   0.82719   0.84356   0.84481
 Alpha virt. eigenvalues --    0.84535   0.84801   0.85240   0.85371   0.86397
 Alpha virt. eigenvalues --    0.86903   0.86948   0.88116   0.88234   0.88583
 Alpha virt. eigenvalues --    0.89027   0.89271   0.89747   0.90844   0.91055
 Alpha virt. eigenvalues --    0.91387   0.91403   0.91522   0.91667   0.91998
 Alpha virt. eigenvalues --    0.92035   0.92286   0.92471   0.93634   0.94554
 Alpha virt. eigenvalues --    0.94753   0.94923   0.95105   0.95594   0.95726
 Alpha virt. eigenvalues --    0.96630   0.96873   0.97448   0.97909   0.98222
 Alpha virt. eigenvalues --    0.98263   0.98763   0.99042   0.99492   1.00519
 Alpha virt. eigenvalues --    1.00653   1.00752   1.01604   1.02195   1.05271
 Alpha virt. eigenvalues --    1.05772   1.06298   1.07003   1.07795   1.10028
 Alpha virt. eigenvalues --    1.11371   1.12977   1.13394   1.14732   1.15268
 Alpha virt. eigenvalues --    1.16212   1.16764   1.17458   1.19327   1.21053
 Alpha virt. eigenvalues --    1.21204   1.22018   1.22453   1.23844   1.24519
 Alpha virt. eigenvalues --    1.24916   1.25917   1.26114   1.28360   1.28391
 Alpha virt. eigenvalues --    1.28420   1.29113   1.29795   1.33295   1.33716
 Alpha virt. eigenvalues --    1.34320   1.34492   1.35963   1.36558   1.37112
 Alpha virt. eigenvalues --    1.39603   1.39840   1.41823   1.44326   1.45675
 Alpha virt. eigenvalues --    1.45699   1.45911   1.46282   1.46471   1.47203
 Alpha virt. eigenvalues --    1.47792   1.48091   1.48121   1.48506   1.48854
 Alpha virt. eigenvalues --    1.49193   1.49845   1.52616   1.52627   1.52877
 Alpha virt. eigenvalues --    1.54361   1.55948   1.56201   1.56994   1.57598
 Alpha virt. eigenvalues --    1.59976   1.61230   1.64642   1.65067   1.65988
 Alpha virt. eigenvalues --    1.65997   1.66928   1.71577   1.71972   1.72509
 Alpha virt. eigenvalues --    1.73015   1.73016   1.74223   1.74777   1.75146
 Alpha virt. eigenvalues --    1.76316   1.76931   1.77192   1.77852   1.79923
 Alpha virt. eigenvalues --    1.81152   1.81439   1.81641   1.82178   1.82306
 Alpha virt. eigenvalues --    1.83625   1.85888   1.86022   1.86320   1.86560
 Alpha virt. eigenvalues --    1.86930   1.87290   1.87409   1.88642   1.89386
 Alpha virt. eigenvalues --    1.91091   1.92097   1.92437   1.92957   1.94189
 Alpha virt. eigenvalues --    1.94307   1.95274   1.95710   1.95905   1.96628
 Alpha virt. eigenvalues --    1.96629   1.97576   1.98910   1.99197   1.99586
 Alpha virt. eigenvalues --    2.00653   2.01655   2.03370   2.03942   2.04916
 Alpha virt. eigenvalues --    2.05213   2.06037   2.07947   2.08129   2.08467
 Alpha virt. eigenvalues --    2.08756   2.09842   2.11032   2.11109   2.11757
 Alpha virt. eigenvalues --    2.12585   2.13697   2.14644   2.16529   2.16714
 Alpha virt. eigenvalues --    2.16961   2.19802   2.21246   2.21418   2.21552
 Alpha virt. eigenvalues --    2.22357   2.22574   2.22732   2.23173   2.23239
 Alpha virt. eigenvalues --    2.24534   2.24542   2.24860   2.25271   2.25613
 Alpha virt. eigenvalues --    2.26546   2.26556   2.26895   2.27331   2.28040
 Alpha virt. eigenvalues --    2.28603   2.28864   2.30194   2.30297   2.32792
 Alpha virt. eigenvalues --    2.32945   2.33617   2.34210   2.35636   2.36687
 Alpha virt. eigenvalues --    2.36802   2.38114   2.39300   2.39634   2.39640
 Alpha virt. eigenvalues --    2.40950   2.42516   2.44346   2.45630   2.49281
 Alpha virt. eigenvalues --    2.49294   2.49769   2.50340   2.51470   2.54175
 Alpha virt. eigenvalues --    2.54976   2.55686   2.56395   2.57113   2.59405
 Alpha virt. eigenvalues --    2.61469   2.65002   2.65482   2.66233   2.67448
 Alpha virt. eigenvalues --    2.69928   2.70763   2.71078   2.71748   2.72841
 Alpha virt. eigenvalues --    2.73688   2.73690   2.76698   2.77013   2.78994
 Alpha virt. eigenvalues --    2.80077   2.81188   2.82946   2.82981   2.84954
 Alpha virt. eigenvalues --    2.85480   2.86333   2.90148   2.90254   2.91226
 Alpha virt. eigenvalues --    2.93361   2.94210   2.95571   2.95579   3.00565
 Alpha virt. eigenvalues --    3.02103   3.02812   3.05412   3.06104   3.09964
 Alpha virt. eigenvalues --    3.19674   3.19926   3.25538   3.29739   3.34787
 Alpha virt. eigenvalues --    3.46253   3.50273   3.61884   3.62288   4.08499
 Alpha virt. eigenvalues --    4.09927   4.10448   4.11561   4.11859   4.13322
 Alpha virt. eigenvalues --    4.13557   4.14750   4.14906   4.15315   4.16051
 Alpha virt. eigenvalues --    4.17498   4.18502   4.20488   4.21791   4.24343
 Alpha virt. eigenvalues --    4.30053   4.30054   4.31340   4.31652   4.32322
 Alpha virt. eigenvalues --    4.34897   4.35834   4.36148   4.43286   4.43454
 Alpha virt. eigenvalues --    4.52037   4.54102   4.63557   4.64431   4.70042
 Alpha virt. eigenvalues --    4.73739   4.88311   5.02330
          Condensed to atoms (all electrons):
 Mulliken charges:
               1
     1  C    0.181109
     2  C   -0.293030
     3  C   -0.308377
     4  C    0.203966
     5  C    0.196299
     6  C   -0.036179
     7  C    0.058304
     8  C    0.062563
     9  C    0.062896
    10  C    0.062881
    11  C    0.062549
    12  C    0.058318
    13  H    0.126610
    14  C   -0.224412
    15  C   -0.224193
    16  C    0.021667
    17  H    0.125207
    18  C   -0.211323
    19  C   -0.036185
    20  C   -0.211327
    21  C   -0.211940
    22  C   -0.211947
    23  H    0.127880
    24  H    0.132320
    25  H    0.128203
    26  H    0.132195
    27  C    0.196308
    28  C    0.203974
    29  C   -0.293027
    30  C   -0.308377
    31  C    0.181106
    32  C   -0.224201
    33  H    0.125207
    34  C    0.021667
    35  C   -0.224415
    36  H    0.126610
    37  H    0.127880
    38  H    0.132321
    39  H    0.128203
    40  H    0.132196
    41  C   -0.434331
    42  C   -0.450393
    43  C   -0.434330
    44  C   -0.450392
    45  C   -0.434331
    46  C   -0.434331
    47  H    0.145544
    48  H    0.136327
    49  H    0.140229
    50  H    0.140230
    51  H    0.136328
    52  H    0.145543
    53  H    0.145545
    54  H    0.140230
    55  H    0.136327
    56  H    0.142501
    57  H    0.140098
    58  H    0.142500
    59  H    0.142500
    60  H    0.142500
    61  H    0.140100
    62  H    0.145544
    63  H    0.136328
    64  H    0.140230
 Sum of Mulliken charges =  -0.00000
 Mulliken charges with hydrogens summed into heavy atoms:
               1
     1  C    0.181109
     2  C   -0.167822
     3  C   -0.181768
     4  C    0.203966
     5  C    0.196299
     6  C   -0.036179
     7  C    0.058304
     8  C    0.062563
     9  C    0.062896
    10  C    0.062881
    11  C    0.062549
    12  C    0.058318
    14  C   -0.096209
    15  C   -0.096313
    16  C    0.021667
    18  C   -0.079127
    19  C   -0.036185
    20  C   -0.079132
    21  C   -0.079619
    22  C   -0.079627
    27  C    0.196308
    28  C    0.203974
    29  C   -0.167820
    30  C   -0.181766
    31  C    0.181106
    32  C   -0.096322
    34  C    0.021667
    35  C   -0.096213
    41  C   -0.012231
    42  C   -0.025292
    43  C   -0.012229
    44  C   -0.025294
    45  C   -0.012230
    46  C   -0.012228
 Electronic spatial extent (au):  <R**2>=          23360.6410
 Charge=             -0.0000 electrons
 Dipole moment (field-independent basis, Debye):
    X=              0.0000    Y=              0.0000    Z=              0.0013  Tot=              0.0013
 Quadrupole moment (field-independent basis, Debye-Ang):
   XX=           -172.9953   YY=           -181.0289   ZZ=           -206.6147
   XY=             -0.1160   XZ=              0.0000   YZ=              0.0000
 Traceless Quadrupole moment (field-independent basis, Debye-Ang):
   XX=             13.8843   YY=              5.8508   ZZ=            -19.7351
   XY=             -0.1160   XZ=              0.0000   YZ=              0.0000
 Octapole moment (field-independent basis, Debye-Ang**2):
  XXX=              0.0035  YYY=              0.0005  ZZZ=              0.0169  XYY=              0.0002
  XXY=             -0.0003  XXZ=              0.0640  XZZ=             -0.0002  YZZ=              0.0001
  YYZ=             -0.0056  XYZ=             -0.0025
 Hexadecapole moment (field-independent basis, Debye-Ang**3):
 XXXX=         -27475.7204 YYYY=          -2770.2393 ZZZZ=           -578.6359 XXXY=             -7.2729
 XXXZ=              0.0008 YYYX=            -20.9194 YYYZ=              0.0003 ZZZX=              0.0008
 ZZZY=              0.0001 XXYY=          -5188.1690 XXZZ=          -5090.2975 YYZZ=           -642.0926
 XXYZ=              0.0023 YYXZ=              0.0003 ZZXY=             24.8234
 N-N= 3.188072983783D+03 E-N=-9.416466866060D+03  KE= 1.301185549874D+03
 Calling FoFJK, ICntrl=      2127 FMM=T ISym2X=0 I1Cent= 0 IOpClX= 0 NMat=1 NMatS=1 NMatT=0.
 ***** Axes restored to original set *****
 -------------------------------------------------------------------
 Center     Atomic                   Forces (Hartrees/Bohr)
 Number     Number              X              Y              Z
 -------------------------------------------------------------------
      1        6          -0.002863292   -0.003283948    0.002885525
      2        6          -0.015725233    0.003502987    0.009527642
      3        6           0.012749653    0.012217180   -0.012144467
      4        6          -0.002626089    0.022551277   -0.004869718
      5        6          -0.009718709    0.023310465   -0.000333210
      6        6           0.002540964   -0.011625807    0.001712650
      7        6          -0.000537280    0.002433891   -0.000354641
      8        6           0.000613468   -0.006748841    0.001571447
      9        6           0.002912664   -0.006180320   -0.000135963
     10        6          -0.002919131    0.006176139    0.000142409
     11        6          -0.000612223    0.006751081   -0.001577965
     12        6           0.000539350   -0.002435615    0.000354801
     13        1          -0.002120791    0.001891926    0.000866263
     14        6          -0.002614678   -0.043323709    0.014496690
     15        6           0.027327672   -0.037377884   -0.007348180
     16        6          -0.003095796    0.003389143    0.001089282
     17        1           0.001779932    0.000898322   -0.001459892
     18        6           0.014382152   -0.031549689   -0.000357170
     19        6          -0.002547824    0.011628063   -0.001715935
     20        6          -0.014376877    0.031549524    0.000370789
     21        6           0.005098570   -0.034106075    0.006623901
     22        6          -0.005077663    0.034107837   -0.006623210
     23        1          -0.000129569    0.002298032   -0.000590018
     24        1           0.004640162   -0.008439251   -0.000633263
     25        1          -0.001209350    0.002139849    0.000180793
     26        1           0.000668839   -0.009346145    0.002299015
     27        6           0.009734864   -0.023314665    0.000335283
     28        6           0.002630417   -0.022545670    0.004875927
     29        6           0.015726595   -0.003497589   -0.009520435
     30        6          -0.012752496   -0.012216498    0.012159685
     31        6           0.002866577    0.003283456   -0.002889511
     32        6          -0.027350264    0.037380761    0.007342328
     33        1          -0.001780521   -0.000899908    0.001458931
     34        6           0.003101505   -0.003387557   -0.001081470
     35        6           0.002611793    0.043318118   -0.014512951
     36        1           0.002126364   -0.001894169   -0.000869229
     37        1           0.000130697   -0.002299240    0.000588554
     38        1          -0.004648114    0.008439429    0.000632586
     39        1           0.001204485   -0.002137506   -0.000179590
     40        1          -0.000671139    0.009345863   -0.002303459
     41        6           0.007749449    0.004740217    0.003479600
     42        6          -0.004726230   -0.002010525    0.003769084
     43        6          -0.001048140    0.000893938   -0.009629223
     44        6           0.004733842    0.002006379   -0.003758984
     45        6          -0.007743234   -0.004751604   -0.003468902
     46        6           0.001048235   -0.000880924    0.009627666
     47        1          -0.000312898    0.002692654   -0.009525468
     48        1           0.001731708   -0.008983740    0.001232879
     49        1          -0.007266566    0.001185240    0.005403934
     50        1          -0.008030829    0.000849403    0.004263903
     51        1           0.001943135   -0.008893272    0.001547620
     52        1           0.007499155    0.006110310    0.002112790
     53        1           0.000311786   -0.002684043    0.009522314
     54        1           0.007265271   -0.001185450   -0.005402538
     55        1          -0.001739269    0.008985178   -0.001243159
     56        1           0.003088603   -0.000995709    0.009355345
     57        1          -0.003697070    0.009821171   -0.000418607
     58        1          -0.006635147   -0.005270347   -0.005134249
     59        1          -0.003090839    0.001005626   -0.009359704
     60        1           0.006635063    0.005261377    0.005134052
     61        1           0.003687703   -0.009820203    0.000406807
     62        1          -0.007494609   -0.006118380   -0.002110518
     63        1          -0.001948083    0.008889019   -0.001556429
     64        1           0.008029279   -0.000849573   -0.004262440
 -------------------------------------------------------------------
 Cartesian Forces:  Max     0.043323709 RMS     0.010354692

 GradGradGradGradGradGradGradGradGradGradGradGradGradGradGradGradGradGrad
 Berny optimization.
 FormGI is forming the generalized inverse of G from B-inverse, IUseBI=4.
 Internal  Forces:  Max     0.030354668 RMS     0.005060760
 Search for a local minimum.
 Step number   1 out of a maximum of  384
 All quantities printed in internal units (Hartrees-Bohrs-Radians)
 Mixed Optimization -- RFO/linear search
 Second derivative matrix not updated -- first step.
 ITU=  0
     Eigenvalues ---    0.00230   0.00230   0.00230   0.00230   0.00230
     Eigenvalues ---    0.00230   0.00230   0.00230   0.01240   0.01242
     Eigenvalues ---    0.01780   0.01791   0.01794   0.01802   0.01805
     Eigenvalues ---    0.01806   0.01810   0.01859   0.01890   0.01942
     Eigenvalues ---    0.01947   0.01957   0.01957   0.01966   0.01966
     Eigenvalues ---    0.01986   0.01988   0.02002   0.02004   0.02008
     Eigenvalues ---    0.02008   0.02010   0.02010   0.02046   0.02046
     Eigenvalues ---    0.02076   0.02076   0.02120   0.02123   0.02136
     Eigenvalues ---    0.02137   0.02200   0.02200   0.02202   0.02203
     Eigenvalues ---    0.04874   0.04874   0.05155   0.05155   0.05184
     Eigenvalues ---    0.05184   0.05378   0.05378   0.05378   0.05379
     Eigenvalues ---    0.05393   0.05393   0.05495   0.05495   0.05495
     Eigenvalues ---    0.05495   0.05508   0.05508   0.14588   0.14588
     Eigenvalues ---    0.15247   0.15247   0.16000   0.16000   0.16000
     Eigenvalues ---    0.16000   0.16000   0.16000   0.16000   0.16000
     Eigenvalues ---    0.16000   0.16000   0.16000   0.16000   0.16000
     Eigenvalues ---    0.16000   0.16000   0.16000   0.16000   0.16000
     Eigenvalues ---    0.16000   0.16000   0.16000   0.16000   0.16000
     Eigenvalues ---    0.16000   0.16000   0.16000   0.16000   0.16000
     Eigenvalues ---    0.16000   0.16000   0.22428   0.22460   0.22656
     Eigenvalues ---    0.22679   0.23511   0.23512   0.23538   0.23550
     Eigenvalues ---    0.24526   0.24557   0.24571   0.24584   0.25000
     Eigenvalues ---    0.25000   0.25000   0.25000   0.25000   0.25000
     Eigenvalues ---    0.25000   0.27830   0.27830   0.28088   0.28089
     Eigenvalues ---    0.28141   0.28141   0.28142   0.28142   0.31752
     Eigenvalues ---    0.32403   0.32404   0.32420   0.32421   0.32421
     Eigenvalues ---    0.32421   0.32435   0.32436   0.32436   0.32436
     Eigenvalues ---    0.32436   0.32436   0.32437   0.32437   0.32638
     Eigenvalues ---    0.32638   0.32638   0.32638   0.34413   0.35491
     Eigenvalues ---    0.35491   0.35492   0.35493   0.35692   0.35693
     Eigenvalues ---    0.35945   0.35946   0.36090   0.36561   0.36562
     Eigenvalues ---    0.36562   0.36562   0.37375   0.38125   0.39264
     Eigenvalues ---    0.39972   0.40569   0.41137   0.41241   0.41316
     Eigenvalues ---    0.41680   0.41758   0.41762   0.42110   0.42319
     Eigenvalues ---    0.43676   0.43684   0.43821   0.43825   0.44304
     Eigenvalues ---    0.44305   0.45121   0.45121   0.45445   0.45477
     Eigenvalues ---    0.45514   0.45623   0.46682   0.46685   0.46723
     Eigenvalues ---    0.46725
 RFO step:  Lambda=-2.55474822D-02 EMin= 2.30000000D-03
 Linear search not attempted -- first point.
 Iteration  1 RMS(Cart)=  0.02271266 RMS(Int)=  0.00026025
 Iteration  2 RMS(Cart)=  0.00029929 RMS(Int)=  0.00003434
 Iteration  3 RMS(Cart)=  0.00000009 RMS(Int)=  0.00003434
 Variable       Old X    -DE/DX   Delta X   Delta X   Delta X     New X
                                 (Linear)    (Quad)   (Total)
    R1        2.66580  -0.00606   0.00000  -0.01579  -0.01584   2.64996
    R2        2.67022  -0.01076   0.00000  -0.02624  -0.02629   2.64393
    R3        2.91945  -0.00386   0.00000  -0.01261  -0.01261   2.90684
    R4        2.65003   0.00563   0.00000   0.01188   0.01188   2.66192
    R5        2.04565   0.00236   0.00000   0.00616   0.00616   2.05181
    R6        2.65292   0.00685   0.00000   0.01430   0.01429   2.66721
    R7        2.04168   0.00272   0.00000   0.00706   0.00706   2.04874
    R8        2.66046   0.01103   0.00000   0.02879   0.02892   2.68938
    R9        2.63167   0.02946   0.00000   0.06033   0.06035   2.69202
   R10        2.65942   0.01211   0.00000   0.03125   0.03138   2.69080
   R11        2.63086   0.03035   0.00000   0.06212   0.06214   2.69300
   R12        2.69309   0.00295   0.00000   0.01039   0.01051   2.70360
   R13        2.68871   0.00830   0.00000   0.01780   0.01778   2.70649
   R14        2.68897   0.00810   0.00000   0.01725   0.01722   2.70620
   R15        2.69333   0.00367   0.00000   0.00829   0.00829   2.70161
   R16        2.67982   0.00938   0.00000   0.01808   0.01801   2.69783
   R17        2.69333   0.00366   0.00000   0.00829   0.00829   2.70161
   R18        2.68002   0.00967   0.00000   0.01863   0.01855   2.69857
   R19        2.68897   0.00810   0.00000   0.01725   0.01723   2.70619
   R20        2.68004   0.00966   0.00000   0.01861   0.01853   2.69857
   R21        2.68871   0.00830   0.00000   0.01780   0.01778   2.70649
   R22        2.67983   0.00938   0.00000   0.01808   0.01800   2.69783
   R23        2.69310   0.00295   0.00000   0.01039   0.01051   2.70361
   R24        2.62789  -0.01722   0.00000  -0.03624  -0.03630   2.59159
   R25        2.04881   0.00175   0.00000   0.00461   0.00461   2.05342
   R26        2.62786  -0.01751   0.00000  -0.03681  -0.03687   2.59099
   R27        2.04885   0.00170   0.00000   0.00447   0.00447   2.05332
   R28        2.91831   0.00138   0.00000   0.00451   0.00451   2.92282
   R29        2.92512  -0.00343   0.00000  -0.01130  -0.01130   2.91382
   R30        2.91828   0.00139   0.00000   0.00453   0.00453   2.92281
   R31        2.62789  -0.01723   0.00000  -0.03624  -0.03630   2.59159
   R32        2.03212   0.00613   0.00000   0.01568   0.01568   2.04780
   R33        2.65942   0.01211   0.00000   0.03125   0.03138   2.69080
   R34        2.66045   0.01103   0.00000   0.02879   0.02892   2.68938
   R35        2.03212   0.00613   0.00000   0.01568   0.01568   2.04780
   R36        2.62787  -0.01751   0.00000  -0.03682  -0.03688   2.59099
   R37        2.03212   0.00613   0.00000   0.01568   0.01568   2.04780
   R38        2.03213   0.00613   0.00000   0.01567   0.01567   2.04780
   R39        2.65004   0.00563   0.00000   0.01188   0.01188   2.66192
   R40        2.63083   0.03035   0.00000   0.06214   0.06216   2.69299
   R41        2.65291   0.00685   0.00000   0.01430   0.01430   2.66721
   R42        2.63167   0.02946   0.00000   0.06033   0.06035   2.69202
   R43        2.66579  -0.00605   0.00000  -0.01579  -0.01584   2.64995
   R44        2.04565   0.00236   0.00000   0.00616   0.00616   2.05181
   R45        2.67023  -0.01076   0.00000  -0.02625  -0.02630   2.64393
   R46        2.04166   0.00272   0.00000   0.00708   0.00708   2.04874
   R47        2.91945  -0.00386   0.00000  -0.01261  -0.01261   2.90684
   R48        2.04885   0.00170   0.00000   0.00447   0.00447   2.05332
   R49        2.92512  -0.00343   0.00000  -0.01130  -0.01130   2.91382
   R50        2.91829   0.00139   0.00000   0.00452   0.00452   2.92281
   R51        2.91831   0.00138   0.00000   0.00451   0.00451   2.92282
   R52        2.04883   0.00175   0.00000   0.00460   0.00460   2.05343
   R53        2.10054  -0.00978   0.00000  -0.02796  -0.02796   2.07258
   R54        2.10080  -0.00921   0.00000  -0.02634  -0.02634   2.07446
   R55        2.09692  -0.00907   0.00000  -0.02576  -0.02576   2.07116
   R56        2.10053  -0.00968   0.00000  -0.02767  -0.02767   2.07286
   R57        2.10052  -0.00968   0.00000  -0.02766  -0.02766   2.07286
   R58        2.10111  -0.01037   0.00000  -0.02967  -0.02967   2.07144
   R59        2.09692  -0.00907   0.00000  -0.02576  -0.02576   2.07116
   R60        2.10081  -0.00922   0.00000  -0.02635  -0.02635   2.07446
   R61        2.10053  -0.00978   0.00000  -0.02796  -0.02796   2.07258
   R62        2.10052  -0.00968   0.00000  -0.02766  -0.02766   2.07286
   R63        2.10112  -0.01038   0.00000  -0.02968  -0.02968   2.07144
   R64        2.10053  -0.00968   0.00000  -0.02767  -0.02767   2.07286
   R65        2.10052  -0.00978   0.00000  -0.02795  -0.02795   2.07258
   R66        2.09691  -0.00906   0.00000  -0.02576  -0.02576   2.07116
   R67        2.10081  -0.00922   0.00000  -0.02635  -0.02635   2.07446
   R68        2.10054  -0.00978   0.00000  -0.02796  -0.02796   2.07258
   R69        2.10080  -0.00921   0.00000  -0.02634  -0.02634   2.07446
   R70        2.09691  -0.00906   0.00000  -0.02576  -0.02576   2.07116
    A1        2.05348   0.00218   0.00000   0.00049   0.00044   2.05391
    A2        2.08641   0.00056   0.00000   0.00575   0.00577   2.09218
    A3        2.14330  -0.00274   0.00000  -0.00624  -0.00621   2.13709
    A4        2.11982   0.00427   0.00000   0.01510   0.01510   2.13492
    A5        2.09307  -0.00137   0.00000  -0.00342  -0.00343   2.08964
    A6        2.07030  -0.00290   0.00000  -0.01167  -0.01168   2.05863
    A7        2.11576   0.00443   0.00000   0.01512   0.01512   2.13088
    A8        2.11211  -0.00344   0.00000  -0.01417  -0.01417   2.09794
    A9        2.05532  -0.00099   0.00000  -0.00095  -0.00095   2.05437
   A10        2.10193  -0.00426   0.00000  -0.01243  -0.01239   2.08953
   A11        2.09588   0.01091   0.00000   0.03183   0.03170   2.12758
   A12        2.08538  -0.00665   0.00000  -0.01940  -0.01931   2.06607
   A13        2.10038  -0.00485   0.00000  -0.01420  -0.01417   2.08621
   A14        2.09603   0.01174   0.00000   0.03436   0.03422   2.13025
   A15        2.08678  -0.00689   0.00000  -0.02015  -0.02006   2.06672
   A16        2.07501  -0.00178   0.00000  -0.00408  -0.00410   2.07091
   A17        2.10446   0.00094   0.00000   0.00208   0.00208   2.10654
   A18        2.10372   0.00083   0.00000   0.00200   0.00202   2.10574
   A19        2.08712  -0.00064   0.00000  -0.00025  -0.00022   2.08690
   A20        2.08715  -0.00053   0.00000  -0.00007  -0.00003   2.08712
   A21        2.10891   0.00117   0.00000   0.00032   0.00025   2.10916
   A22        2.08715  -0.00053   0.00000  -0.00005  -0.00002   2.08713
   A23        2.06122   0.00164   0.00000   0.00258   0.00252   2.06374
   A24        2.13482  -0.00111   0.00000  -0.00252  -0.00250   2.13231
   A25        2.08712  -0.00063   0.00000  -0.00026  -0.00023   2.08689
   A26        2.06126   0.00183   0.00000   0.00295   0.00289   2.06415
   A27        2.13481  -0.00120   0.00000  -0.00268  -0.00266   2.13214
   A28        2.08712  -0.00064   0.00000  -0.00027  -0.00023   2.08690
   A29        2.13480  -0.00119   0.00000  -0.00268  -0.00266   2.13214
   A30        2.06126   0.00183   0.00000   0.00295   0.00288   2.06415
   A31        2.08715  -0.00053   0.00000  -0.00006  -0.00002   2.08713
   A32        2.13481  -0.00111   0.00000  -0.00252  -0.00249   2.13231
   A33        2.06123   0.00164   0.00000   0.00257   0.00252   2.06374
   A34        2.10891   0.00117   0.00000   0.00032   0.00025   2.10916
[...]

 **********************************************************************

            Population analysis using the SCF Density.

 **********************************************************************

 Orbital symmetries:
       Occupied  (A) (A) (A) (A) (A) (A) (A) (A) (A) (A) (A) (A)
                 (A) (A) (A) (A) (A) (A) (A) (A) (A) (A) (A) (A)
                 (A) (A) (A) (A) (A) (A) (A) (A) (A) (A) (A) (A)
                 (A) (A) (A) (A) (A) (A) (A) (A) (A) (A) (A) (A)
                 (A) (A) (A) (A) (A) (A) (A) (A) (A) (A) (A) (A)
                 (A) (A) (A) (A) (A) (A) (A) (A) (A) (A) (A) (A)
                 (A) (A) (A) (A) (A) (A) (A) (A) (A) (A) (A) (A)
                 (A) (A) (A) (A) (A) (A) (A) (A) (A) (A) (A) (A)
                 (A) (A) (A) (A) (A) (A) (A) (A) (A) (A) (A) (A)
                 (A) (A) (A) (A) (A) (A) (A) (A) (A)
       Virtual   (A) (A) (A) (A) (A) (A) (A) (A) (A) (A) (A) (A)
                 (A) (A) (A) (A) (A) (A) (A) (A) (A) (A) (A) (A)
                 (A) (A) (A) (A) (A) (A) (A) (A) (A) (A) (A) (A)
                 (A) (A) (A) (A) (A) (A) (A) (A) (A) (A) (A) (A)
                 (A) (A) (A) (A) (A) (A) (A) (A) (A) (A) (A) (A)
                 (A) (A) (A) (A) (A) (A) (A) (A) (A) (A) (A) (A)
                 (A) (A) (A) (A) (A) (A) (A) (A) (A) (A) (A) (A)
                 (A) (A) (A) (A) (A) (A) (A) (A) (A) (A) (A) (A)
                 (A) (A) (A) (A) (A) (A) (A) (A) (A) (A) (A) (A)
                 (A) (A) (A) (A) (A) (A) (A) (A) (A) (A) (A) (A)
                 (A) (A) (A) (A) (A) (A) (A) (A) (A) (A) (A) (A)
                 (A) (A) (A) (A) (A) (A) (A) (A) (A) (A) (A) (A)
                 (A) (A) (A) (A) (A) (A) (A) (A) (A) (A) (A) (A)
                 (A) (A) (A) (A) (A) (A) (A) (A) (A) (A) (A) (A)
                 (A) (A) (A) (A) (A) (A) (A) (A) (A) (A) (A) (A)
                 (A) (A) (A) (A) (A) (A) (A) (A) (A) (A) (A) (A)
                 (A) (A) (A) (A) (A) (A) (A) (A) (A) (A) (A) (A)
                 (A) (A) (A) (A) (A) (A) (A) (A) (A) (A) (A) (A)
                 (A) (A) (A) (A) (A) (A) (A) (A) (A) (A) (A) (A)
                 (A) (A) (A) (A) (A) (A) (A) (A) (A) (A) (A) (A)
                 (A) (A) (A) (A) (A) (A) (A) (A) (A) (A) (A) (A)
                 (A) (A) (A) (A) (A) (A) (A) (A) (A) (A) (A) (A)
                 (A) (A) (A) (A) (A) (A) (A) (A) (A) (A) (A) (A)
                 (A) (A) (A) (A) (A) (A) (A) (A) (A) (A) (A) (A)
                 (A) (A) (A) (A) (A) (A) (A) (A) (A) (A) (A) (A)
                 (A) (A) (A) (A) (A) (A) (A) (A) (A) (A) (A) (A)
                 (A) (A) (A) (A) (A) (A) (A) (A) (A) (A) (A) (A)
                 (A) (A) (A) (A) (A) (A) (A) (A) (A) (A) (A) (A)
                 (A) (A) (A) (A) (A) (A) (A) (A) (A) (A) (A) (A)
                 (A) (A) (A) (A) (A) (A) (A) (A) (A) (A) (A) (A)
                 (A) (A) (A) (A) (A) (A) (A) (A) (A) (A) (A) (A)
                 (A) (A) (A) (A) (A) (A) (A) (A) (A) (A) (A) (A)
                 (A) (A) (A) (A) (A) (A) (A) (A) (A) (A) (A) (A)
                 (A) (A) (A) (A) (A) (A) (A) (A) (A) (A) (A) (A)
                 (A) (A) (A) (A) (A) (A) (A) (A) (A) (A) (A) (A)
                 (A) (A) (A) (A) (A) (A) (A) (A) (A) (A) (A) (A)
                 (A) (A) (A) (A) (A) (A) (A) (A) (A) (A) (A) (A)
                 (A) (A) (A) (A) (A) (A) (A) (A) (A)
 The electronic state is 1-A.
 Alpha  occ. eigenvalues --  -10.20421 -10.20421 -10.19907 -10.19902 -10.19865
 Alpha  occ. eigenvalues --  -10.19858 -10.19736 -10.19735 -10.19403 -10.19403
 Alpha  occ. eigenvalues --  -10.19361 -10.19361 -10.19353 -10.19353 -10.19283
 Alpha  occ. eigenvalues --  -10.19283 -10.18915 -10.18915 -10.18892 -10.18892
 Alpha  occ. eigenvalues --  -10.18843 -10.18843 -10.18821 -10.18821 -10.18483
 Alpha  occ. eigenvalues --  -10.18483 -10.18434 -10.18434 -10.17444 -10.17444
 Alpha  occ. eigenvalues --  -10.17411 -10.17411 -10.17410 -10.17410  -0.89362
 Alpha  occ. eigenvalues --   -0.87739  -0.85120  -0.83441  -0.83265  -0.81576
 Alpha  occ. eigenvalues --   -0.81386  -0.78856  -0.76670  -0.75829  -0.74106
 Alpha  occ. eigenvalues --   -0.73788  -0.73220  -0.71167  -0.69715  -0.68522
 Alpha  occ. eigenvalues --   -0.68326  -0.68326  -0.67949  -0.63912  -0.63074
 Alpha  occ. eigenvalues --   -0.63031  -0.61469  -0.60332  -0.60113  -0.58994
 Alpha  occ. eigenvalues --   -0.55930  -0.53378  -0.52954  -0.52248  -0.51846
 Alpha  occ. eigenvalues --   -0.49676  -0.49342  -0.49076  -0.48163  -0.47654
 Alpha  occ. eigenvalues --   -0.47462  -0.44884  -0.44787  -0.43963  -0.43784
 Alpha  occ. eigenvalues --   -0.43777  -0.43217  -0.42933  -0.41607  -0.41557
 Alpha  occ. eigenvalues --   -0.41428  -0.41003  -0.40951  -0.40076  -0.39820
 Alpha  occ. eigenvalues --   -0.39435  -0.39202  -0.39164  -0.38384  -0.38375
 Alpha  occ. eigenvalues --   -0.37838  -0.37476  -0.37300  -0.36973  -0.36779
 Alpha  occ. eigenvalues --   -0.36535  -0.36519  -0.35167  -0.34792  -0.33991
 Alpha  occ. eigenvalues --   -0.33751  -0.33492  -0.32952  -0.32468  -0.32339
 Alpha  occ. eigenvalues --   -0.31884  -0.31442  -0.31201  -0.30288  -0.30077
 Alpha  occ. eigenvalues --   -0.27431  -0.25848  -0.24722  -0.24712  -0.22873
 Alpha  occ. eigenvalues --   -0.21376  -0.17459
 Alpha virt. eigenvalues --   -0.07134  -0.03112  -0.01733  -0.00865   0.00785
 Alpha virt. eigenvalues --    0.02312   0.02989   0.08206   0.08238   0.08249
 Alpha virt. eigenvalues --    0.09452   0.09508   0.10418   0.11348   0.11996
 Alpha virt. eigenvalues --    0.12618   0.12885   0.13283   0.13412   0.13805
 Alpha virt. eigenvalues --    0.14389   0.14410   0.14473   0.15292   0.15350
 Alpha virt. eigenvalues --    0.15630   0.16194   0.16211   0.16568   0.17656
 Alpha virt. eigenvalues --    0.18015   0.18927   0.18953   0.19930   0.20339
 Alpha virt. eigenvalues --    0.21240   0.21507   0.21542   0.21812   0.21943
 Alpha virt. eigenvalues --    0.22204   0.22614   0.22803   0.23117   0.23493
 Alpha virt. eigenvalues --    0.23545   0.24151   0.24531   0.25650   0.25853
 Alpha virt. eigenvalues --    0.26603   0.26605   0.26681   0.27554   0.27727
 Alpha virt. eigenvalues --    0.27930   0.28305   0.30103   0.30732   0.31643
 Alpha virt. eigenvalues --    0.31943   0.33288   0.35429   0.36508   0.36725
 Alpha virt. eigenvalues --    0.36943   0.37427   0.37790   0.41372   0.44218
 Alpha virt. eigenvalues --    0.45675   0.46252   0.47012   0.47702   0.48081
 Alpha virt. eigenvalues --    0.49446   0.49887   0.49977   0.50323   0.50335
 Alpha virt. eigenvalues --    0.51105   0.51154   0.51227   0.52452   0.52752
 Alpha virt. eigenvalues --    0.52935   0.53112   0.53688   0.54416   0.54422
 Alpha virt. eigenvalues --    0.54477   0.55194   0.55490   0.55595   0.56340
 Alpha virt. eigenvalues --    0.57131   0.57487   0.57562   0.57568   0.57706
 Alpha virt. eigenvalues --    0.57924   0.58364   0.58750   0.59142   0.59204
 Alpha virt. eigenvalues --    0.59699   0.59965   0.60047   0.60568   0.61110
 Alpha virt. eigenvalues --    0.61295   0.61395   0.61470   0.61978   0.62026
 Alpha virt. eigenvalues --    0.62621   0.62974   0.63287   0.63335   0.65121
 Alpha virt. eigenvalues --    0.65715   0.65798   0.66310   0.67082   0.68461
 Alpha virt. eigenvalues --    0.69183   0.69251   0.69704   0.69747   0.71097
 Alpha virt. eigenvalues --    0.71896   0.72509   0.72636   0.72673   0.72824
 Alpha virt. eigenvalues --    0.76386   0.76461   0.77174   0.77602   0.79309
 Alpha virt. eigenvalues --    0.80092   0.80662   0.80852   0.81110   0.81755
 Alpha virt. eigenvalues --    0.81861   0.82685   0.83195   0.84354   0.84389
 Alpha virt. eigenvalues --    0.84612   0.85066   0.85320   0.85373   0.86257
 Alpha virt. eigenvalues --    0.86695   0.87217   0.88372   0.88651   0.88879
 Alpha virt. eigenvalues --    0.89581   0.89853   0.90341   0.90817   0.91283
 Alpha virt. eigenvalues --    0.91615   0.91721   0.91814   0.91836   0.91954
 Alpha virt. eigenvalues --    0.92518   0.92787   0.92908   0.94331   0.94515
 Alpha virt. eigenvalues --    0.94591   0.94856   0.95134   0.95136   0.95932
 Alpha virt. eigenvalues --    0.96475   0.97212   0.97634   0.97918   0.98885
 Alpha virt. eigenvalues --    0.98999   0.99577   0.99655   1.00469   1.00692
 Alpha virt. eigenvalues --    1.01010   1.01012   1.01471   1.02641   1.04538
 Alpha virt. eigenvalues --    1.05552   1.06006   1.06536   1.07523   1.09336
 Alpha virt. eigenvalues --    1.10694   1.12712   1.13498   1.14122   1.14682
 Alpha virt. eigenvalues --    1.16823   1.17427   1.18020   1.19096   1.21046
 Alpha virt. eigenvalues --    1.21523   1.21590   1.22096   1.24106   1.24325
 Alpha virt. eigenvalues --    1.25072   1.25310   1.26001   1.27295   1.27778
 Alpha virt. eigenvalues --    1.28094   1.28151   1.29392   1.33467   1.33593
 Alpha virt. eigenvalues --    1.34255   1.34471   1.35988   1.36280   1.37488
 Alpha virt. eigenvalues --    1.39738   1.39937   1.42007   1.44577   1.45009
 Alpha virt. eigenvalues --    1.45224   1.45424   1.46912   1.47074   1.47137
 Alpha virt. eigenvalues --    1.47263   1.48046   1.48089   1.48512   1.48835
 Alpha virt. eigenvalues --    1.48885   1.49395   1.52837   1.53071   1.53092
 Alpha virt. eigenvalues --    1.54247   1.55601   1.55832   1.57180   1.58008
 Alpha virt. eigenvalues --    1.59036   1.61002   1.64224   1.64518   1.65724
 Alpha virt. eigenvalues --    1.65737   1.66609   1.70744   1.70824   1.72334
 Alpha virt. eigenvalues --    1.72526   1.72530   1.73677   1.74243   1.74662
 Alpha virt. eigenvalues --    1.74735   1.76257   1.76813   1.77776   1.79472
 Alpha virt. eigenvalues --    1.79795   1.80539   1.81275   1.81572   1.81789
 Alpha virt. eigenvalues --    1.83543   1.84852   1.85995   1.86037   1.86197
 Alpha virt. eigenvalues --    1.87395   1.87477   1.88087   1.88154   1.88725
 Alpha virt. eigenvalues --    1.89366   1.91424   1.91641   1.91800   1.93116
 Alpha virt. eigenvalues --    1.94189   1.94221   1.94482   1.94915   1.95744
 Alpha virt. eigenvalues --    1.96694   1.96696   1.97941   1.98256   1.99103
 Alpha virt. eigenvalues --    2.00021   2.00053   2.00720   2.02544   2.03126
 Alpha virt. eigenvalues --    2.05197   2.05986   2.07737   2.07861   2.08150
 Alpha virt. eigenvalues --    2.08616   2.08659   2.10900   2.11126   2.12270
 Alpha virt. eigenvalues --    2.12453   2.14238   2.14769   2.16522   2.16643
 Alpha virt. eigenvalues --    2.16832   2.18260   2.20819   2.21091   2.21931
 Alpha virt. eigenvalues --    2.22289   2.23399   2.23683   2.24667   2.24851
 Alpha virt. eigenvalues --    2.24934   2.25338   2.26027   2.26669   2.26762
 Alpha virt. eigenvalues --    2.27139   2.27781   2.28347   2.28416   2.29061
 Alpha virt. eigenvalues --    2.29515   2.29889   2.30374   2.30967   2.30977
 Alpha virt. eigenvalues --    2.32327   2.32883   2.33131   2.35112   2.36173
 Alpha virt. eigenvalues --    2.36494   2.37571   2.38069   2.38573   2.38660
 Alpha virt. eigenvalues --    2.40893   2.41146   2.43890   2.46642   2.49303
 Alpha virt. eigenvalues --    2.49788   2.50314   2.50569   2.51163   2.53616
 Alpha virt. eigenvalues --    2.54988   2.56230   2.56242   2.58093   2.59867
 Alpha virt. eigenvalues --    2.61016   2.64253   2.64857   2.65366   2.66342
 Alpha virt. eigenvalues --    2.69707   2.70265   2.70475   2.70900   2.71541
 Alpha virt. eigenvalues --    2.72348   2.72687   2.74746   2.75861   2.78702
 Alpha virt. eigenvalues --    2.80130   2.80261   2.82958   2.83483   2.84322
 Alpha virt. eigenvalues --    2.85433   2.86882   2.89890   2.90486   2.91606
 Alpha virt. eigenvalues --    2.91866   2.92385   2.94715   2.95069   3.00718
 Alpha virt. eigenvalues --    3.01084   3.02751   3.05285   3.07298   3.11720
 Alpha virt. eigenvalues --    3.18079   3.18693   3.22811   3.26725   3.32996
 Alpha virt. eigenvalues --    3.42145   3.48406   3.57708   3.60090   4.07258
 Alpha virt. eigenvalues --    4.09008   4.09308   4.10685   4.11281   4.13821
 Alpha virt. eigenvalues --    4.14068   4.14629   4.15412   4.15886   4.16510
 Alpha virt. eigenvalues --    4.18176   4.18904   4.21090   4.22259   4.24095
 Alpha virt. eigenvalues --    4.30587   4.30588   4.31531   4.32283   4.32806
 Alpha virt. eigenvalues --    4.34400   4.35479   4.36404   4.42801   4.43625
 Alpha virt. eigenvalues --    4.52224   4.53243   4.62780   4.63950   4.70179
 Alpha virt. eigenvalues --    4.73799   4.86264   4.99783
          Condensed to atoms (all electrons):
 Mulliken charges:
               1
     1  C    0.201486
     2  C   -0.303374
     3  C   -0.316047
     4  C    0.189629
     5  C    0.185999
     6  C   -0.053912
     7  C    0.056065
     8  C    0.045440
     9  C    0.044290
    10  C    0.044290
    11  C    0.045440
    12  C    0.056065
    13  H    0.125030
    14  C   -0.211147
    15  C   -0.211455
    16  C    0.014595
    17  H    0.123506
    18  C   -0.187417
    19  C   -0.053912
    20  C   -0.187417
    21  C   -0.186527
    22  C   -0.186526
    23  H    0.127833
    24  H    0.133345
    25  H    0.128068
    26  H    0.133201
    27  C    0.185999
    28  C    0.189629
    29  C   -0.303374
    30  C   -0.316047
    31  C    0.201486
    32  C   -0.211455
    33  H    0.123506
    34  C    0.014595
    35  C   -0.211147
    36  H    0.125030
    37  H    0.127833
    38  H    0.133345
    39  H    0.128068
    40  H    0.133201
    41  C   -0.439071
    42  C   -0.455613
    43  C   -0.439068
    44  C   -0.455613
    45  C   -0.439068
    46  C   -0.439071
    47  H    0.148465
    48  H    0.138642
    49  H    0.143611
    50  H    0.143610
    51  H    0.138643
    52  H    0.148465
    53  H    0.148465
    54  H    0.143610
    55  H    0.138643
    56  H    0.146059
    57  H    0.141590
    58  H    0.146059
    59  H    0.146059
    60  H    0.146059
    61  H    0.141590
    62  H    0.148465
    63  H    0.138642
    64  H    0.143611
 Sum of Mulliken charges =  -0.00000
 Mulliken charges with hydrogens summed into heavy atoms:
               1
     1  C    0.201486
     2  C   -0.179868
     3  C   -0.191016
     4  C    0.189629
     5  C    0.185999
     6  C   -0.053912
     7  C    0.056065
     8  C    0.045440
     9  C    0.044290
    10  C    0.044290
    11  C    0.045440
    12  C    0.056065
    14  C   -0.083080
    15  C   -0.083623
    16  C    0.014595
    18  C   -0.054216
    19  C   -0.053912
    20  C   -0.054216
    21  C   -0.053181
    22  C   -0.053181
    27  C    0.185999
    28  C    0.189629
    29  C   -0.179868
    30  C   -0.191016
    31  C    0.201486
    32  C   -0.083623
    34  C    0.014595
    35  C   -0.083079
    41  C   -0.008353
    42  C   -0.021905
    43  C   -0.008350
    44  C   -0.021905
    45  C   -0.008350
    46  C   -0.008353
 Electronic spatial extent (au):  <R**2>=          23489.3299
 Charge=             -0.0000 electrons
 Dipole moment (field-independent basis, Debye):
    X=              0.0000    Y=              0.0000    Z=              0.0000  Tot=              0.0000
 Quadrupole moment (field-independent basis, Debye-Ang):
   XX=           -170.4317   YY=           -181.3865   ZZ=           -206.5238
   XY=             -0.0734   XZ=             -0.0000   YZ=              0.0000
 Traceless Quadrupole moment (field-independent basis, Debye-Ang):
   XX=             15.6823   YY=              4.7275   ZZ=            -20.4098
   XY=             -0.0734   XZ=             -0.0000   YZ=              0.0000
 Octapole moment (field-independent basis, Debye-Ang**2):
  XXX=              0.0000  YYY=              0.0000  ZZZ=              0.0012  XYY=             -0.0000
  XXY=             -0.0000  XXZ=              0.0009  XZZ=              0.0000  YZZ=             -0.0000
  YYZ=             -0.0009  XYZ=             -0.0001
 Hexadecapole moment (field-independent basis, Debye-Ang**3):
 XXXX=         -27384.8875 YYYY=          -2818.0352 ZZZZ=           -573.9427 XXXY=             -5.3982
 XXXZ=              0.0001 YYYX=            -16.8574 YYYZ=              0.0000 ZZZX=             -0.0005
 ZZZY=             -0.0000 XXYY=          -5201.3281 XXZZ=          -5089.2483 YYZZ=           -647.7764
 XXYZ=             -0.0000 YYXZ=              0.0004 ZZXY=             21.6271
 N-N= 3.178402334360D+03 E-N=-9.396951045943D+03  KE= 1.301017206270D+03
 Unable to Open any file for archive entry.
 1\1\GINC-CDR1434\FOpt\RB3LYP\6-31G(d)\C34H30\LUSTRA\27-Jan-2022\0\\#n 
 B3LYP/6-31G(d) Opt\\Title\\0,1\C,-0.5801876191,3.4553195317,0.34997636
 5\C,0.5753048601,2.9764859804,-0.2845449302\C,-1.3191302781,2.54654925
 99,1.1133566043\C,-0.9375222636,1.2001936083,1.2535173121\C,0.99636939
 08,1.6435987056,-0.1748260488\C,0.2367341993,0.7236898522,0.6057152096
 \C,0.6448929754,-0.6441442202,0.7343834382\C,-0.1386261318,-1.54316403
 48,1.5248075912\C,1.8298689249,-1.0926611124,0.0711525396\C,0.26712260
 07,-2.9033630806,1.6528507147\C,2.2356169252,-2.4528603527,0.199194591
 1\C,1.4520992948,-3.3518795807,0.9896209555\H,-2.2210197086,2.86647068
 74,1.6244582743\C,-1.6988136815,0.2749357186,2.0367432654\C,2.17770459
 99,1.1611471543,-0.825627609\C,-0.9862514987,4.9322886722,0.1878009461
 \H,1.1800291627,3.6485706035,-0.8881788607\C,3.4136386154,-2.969431852
 3,-0.4393395226\C,1.8602615512,-4.7197121299,1.118294337\C,-1.31664889
 03,-1.0265930678,2.1633400431\C,-0.4727621243,-3.8585135495,2.43051547
 03\C,2.5697549105,-0.1375100445,-0.7065104009\H,2.7635277548,1.8556228
 19,-1.4231759862\H,3.471168527,-0.4519575318,-1.2189038325\H,-2.597501
 0458,0.6306099549,2.5351693135\H,-1.9280001684,-1.6860864648,2.7677201
 417\C,1.1006300998,-5.6396193267,1.8988411171\C,3.0345209519,-5.196214
 6326,0.4704965698\C,1.5217003665,-6.9725041662,2.0085684944\C,3.416136
 1832,-6.5425670371,0.6106680156\C,2.6771932904,-7.451337471,1.37404798
 32\C,-0.0807074961,-5.1571688905,2.5496391144\H,0.9169847065,-7.644584
 9149,2.6122153968\C,3.0832791214,-8.9282970192,1.5362559044\C,3.795807
 597,-4.2709587619,-0.3127365308\H,4.3180280645,-6.8624874421,0.0995700
 413\H,-0.6665300864,-5.851644312,3.1471883168\H,-1.374178225,-3.544067
 1986,2.942905225\H,4.6944940383,-4.6266334229,-0.811163942\H,4.0249855
 283,-2.3099402912,-1.0437260532\C,0.1459780593,5.8391457281,0.72600486
 14\C,-2.2780457161,5.2738651552,0.9543354646\C,-1.2208498193,5.2397772
 471,-1.3103350321\C,4.3752076543,-9.2698145153,0.7699215154\C,1.951170
 4383,-9.8351878576,0.9978545768\C,3.3176464197,-9.2358002452,3.0344249
 962\H,0.3292454765,5.6476842102,1.7894439465\H,-0.1255101016,6.8958678
 417,0.6122056193\H,1.0875832346,5.6778203263,0.1909506824\H,-0.3224540
 021,5.0595311059,-1.9097716753\H,-1.5054697278,6.2907462069,-1.4436521
 445\H,-2.0244987529,4.6155156102,-1.7172661178\H,1.7680485216,-9.64369
 61946,-0.0656041202\H,1.0094793036,-9.6739319903,1.5327772458\H,2.2226
 942651,-10.8919008364,1.1116535298\H,4.2670770944,-9.1020384158,-0.307
 6970255\H,4.6214311504,-10.3275991399,0.9159669376\H,5.2283045938,-8.6
 804950615,1.1249288828\H,-2.169720299,5.1061950204,2.0319506161\H,-3.1
 3119908,4.684500523,0.5995378115\H,-2.5243067181,6.3316333215,0.808234
 0866\H,4.121225606,-8.6115353327,3.4414888365\H,3.6022539379,-10.28676
 82027,3.1677765979\H,2.4191534386,-9.0555651435,3.6337203343\\Version=
 ES64L-G16RevC.01\State=1-A\HF=-1313.8007272\RMSD=7.055e-09\RMSF=1.580e
 -05\Dipole=0.0000038,0.0000017,0.0000057\Quadrupole=-1.3453261,9.91351
 95,-8.5681934,-4.5450898,-7.9428366,-4.3337336\PG=C01 [X(C34H30)]\\@
 The archive entry for this job was punched.


 NOTHING WILL BE ATTEMPTED IF ALL POSSIBLE OBJECTIONS
 MUST FIRST BE OVERCOME.

                               -- THE GOLDEN PRINCIPLE,
                    PAUL DICKSON'S "THE OFFICIAL RULES"
 Job cpu time:       0 days  1 hours 33 minutes 37.1 seconds.
 Elapsed time:       0 days  0 hours 46 minutes 56.7 seconds.
 File lengths (MBytes):  RWF=    207 Int=      0 D2E=      0 Chk=     27 Scr=      1
 Normal termination of Gaussian 16 at Thu Jan 27 22:46:46 2022.
