 Entering Gaussian System, Link 0=g16
 Initial command:
 /opt/software/gaussian/g16.c01/l1.exe "/localscratch/lustra.25342987.0/Gau-207548.inp" -scrdir="/localscratch/lustra.25342987.0/"
 Entering Link 1 = /opt/software/gaussian/g16.c01/l1.exe PID=    207550.
  
 Copyright (c) 1988-2019, Gaussian, Inc.  All Rights Reserved.
  
 This is part of the Gaussian(R) 16 program.  It is based on
 the Gaussian(R) 09 system (copyright 2009, Gaussian, Inc.),
 the Gaussian(R) 03 system (copyright 2003, Gaussian, Inc.),
 the Gaussian(R) 98 system (copyright 1998, Gaussian, Inc.),
 the Gaussian(R) 94 system (copyright 1995, Gaussian, Inc.),
 the Gaussian 92(TM) system (copyright 1992, Gaussian, Inc.),
 the Gaussian 90(TM) system (copyright 1990, Gaussian, Inc.),
 the Gaussian 88(TM) system (copyright 1988, Gaussian, Inc.),
 the Gaussian 86(TM) system (copyright 1986, Carnegie Mellon
 University), and the Gaussian 82(TM) system (copyright 1983,
 Carnegie Mellon University). Gaussian is a federally registered
 trademark of Gaussian, Inc.
  
 This software contains proprietary and confidential information,
 including trade secrets, belonging to Gaussian, Inc.
  
 This software is provided under written license and may be
 used, copied, transmitted, or stored only in accord with that
 written license.
  
 The following legend is applicable only to US Government
 contracts under FAR:
  
                    RESTRICTED RIGHTS LEGEND
  
 Use, reproduction and disclosure by the US Government is
 subject to restrictions as set forth in subparagraphs (a)
 and (c) of the Commercial Computer Software - Restricted
 Rights clause in FAR 52.227-19.
  
 Gaussian, Inc.
 340 Quinnipiac St., Bldg. 40, Wallingford CT 06492
  
  
 ---------------------------------------------------------------
 Warning -- This program may not be used in any manner that
 competes with the business of Gaussian, Inc. or will provide
 assistance to any competitor of Gaussian, Inc.  The licensee
 of this program is prohibited from giving any competitor of
 Gaussian, Inc. access to this program.  By using this program,
 the user acknowledges that Gaussian, Inc. is engaged in the
 business of creating and licensing software in the field of
 computational chemistry and represents and warrants to the
 licensee that it is not a competitor of Gaussian, Inc. and that
 it will not use this program in any manner prohibited above.
 ---------------------------------------------------------------
  

 Cite this work as:
 Gaussian 16, Revision C.01,
 M. J. Frisch, G. W. Trucks, H. B. Schlegel, G. E. Scuseria, 
 M. A. Robb, J. R. Cheeseman, G. Scalmani, V. Barone, 
 G. A. Petersson, H. Nakatsuji, X. Li, M. Caricato, A. V. Marenich, 
 J. Bloino, B. G. Janesko, R. Gomperts, B. Mennucci, H. P. Hratchian, 
 J. V. Ortiz, A. F. Izmaylov, J. L. Sonnenberg, D. Williams-Young, 
 F. Ding, F. Lipparini, F. Egidi, J. Goings, B. Peng, A. Petrone, 
 T. Henderson, D. Ranasinghe, V. G. Zakrzewski, J. Gao, N. Rega, 
 G. Zheng, W. Liang, M. Hada, M. Ehara, K. Toyota, R. Fukuda, 
 J. Hasegawa, M. Ishida, T. Nakajima, Y. Honda, O. Kitao, H. Nakai, 
 T. Vreven, K. Throssell, J. A. Montgomery, Jr., J. E. Peralta, 
 F. Ogliaro, M. J. Bearpark, J. J. Heyd, E. N. Brothers, K. N. Kudin, 
 V. N. Staroverov, T. A. Keith, R. Kobayashi, J. Normand, 
 K. Raghavachari, A. P. Rendell, J. C. Burant, S. S. Iyengar, 
 J. Tomasi, M. Cossi, J. M. Millam, M. Klene, C. Adamo, R. Cammi, 
 J. W. Ochterski, R. L. Martin, K. Morokuma, O. Farkas, 
 J. B. Foresman, and D. J. Fox, Gaussian, Inc., Wallingford CT, 2019.
 
 ******************************************
 Gaussian 16:  ES64L-G16RevC.01  3-Jul-2019
                25-Jan-2022 
 ******************************************
 %NProcShared=2
 Will use up to    2 processors via shared memory.
 %Chk=teropyrene.chk
 ---------------------
 #n B3LYP/6-31G(d) Opt
 ---------------------
 1/18=20,19=15,26=3,38=1/1,3;
 2/9=110,12=2,17=6,18=5,40=1/2;
 3/5=1,6=6,7=1,11=2,25=1,30=1,71=1,74=-5/1,2,3;
 4//1;
 5/5=2,38=5/2;
 6/7=2,8=2,9=2,10=2,28=1/1;
 7//1,2,3,16;
 1/18=20,19=15,26=3/3(2);
 2/9=110/2;
 99//99;
 2/9=110/2;
 3/5=1,6=6,7=1,11=2,25=1,30=1,71=1,74=-5/1,2,3;
 4/5=5,16=3,69=1/1;
 5/5=2,38=5/2;
 7//1,2,3,16;
 1/18=20,19=15,26=3/3(-5);
 2/9=110/2;
 6/7=2,8=2,9=2,10=2,19=2,28=1/1;
 99/9=1/99;
 ----------
 teropyrene
 ----------
 Symbolic Z-matrix:
 Charge =  0 Multiplicity = 1
 C                     1.009    -5.799     0.368 
 C                     0.596    -4.437     0.382 
 C                     0.031    -6.832     0.384 
 C                    -0.792    -4.105     0.412 
 C                    -1.759    -5.145     0.427 
 C                    -1.359    -6.507     0.413 
 C                     0.48     -8.165     0.369 
 C                    -1.255    -2.762     0.427 
 C                     1.594    -3.446     0.366 
 C                    -2.374    -7.501     0.43 
 C                    -3.146    -4.817     0.455 
 C                    -3.563    -3.469     0.469 
 C                    -4.123    -5.836     0.47 
 C                    -4.931    -3.154     0.496 
 C                    -5.487    -5.506     0.497 
 C                    -5.886    -4.17      0.51 
 C                    -3.724    -7.168     0.458 
 H                    -5.261    -2.121     0.506 
 C                    -2.611    -2.456     0.455 
 H                    -6.244    -6.282     0.509 
 C                     9.305    -7.757     0.195 
 C                     8.35     -8.774     0.21 
 C                     8.906    -6.421     0.208 
 C                     6.983    -8.459     0.237 
 C                     7.542    -6.092     0.235 
 C                     6.565    -7.111     0.25 
 C                     5.178    -6.783     0.279 
 C                     4.778    -5.421     0.292 
 C                     4.211    -7.823     0.294 
 C                     3.388    -5.097     0.322 
 C                     2.823    -7.491     0.323 
 C                     2.41     -6.13      0.338 
 H                     8.68     -9.806     0.199 
 H                     9.663    -5.646     0.197 
 C                     6.031    -9.472     0.251 
 C                     7.143    -4.76      0.248 
 C                     5.793    -4.427     0.276 
 C                     4.674    -9.166     0.279 
 C                     2.939    -3.764     0.337 
 C                     1.825    -8.482     0.34 
 H                    -2.173    -8.557     0.422 
 H                    -4.462    -7.962     0.469 
 H                     2.039    -9.536     0.331 
 H                    -0.183    -9.011     0.379 
 H                     6.336    -10.512    0.241 
 H                     4.022    -10.02     0.288 
 H                     7.881    -3.965     0.237 
 H                     5.591    -3.371     0.284 
 H                     3.602    -2.917     0.327 
 H                     1.38     -2.393     0.375 
 H                    -0.602    -1.909     0.418 
 H                    -2.916    -1.416     0.465 
 H                    -6.89013  -3.93264   0.53002 
 H                     10.30917  -7.99412   0.17423 
 

 GradGradGradGradGradGradGradGradGradGradGradGradGradGradGradGradGradGrad
 Berny optimization.
 Initialization pass.
                           ----------------------------
                           !    Initial Parameters    !
                           ! (Angstroms and Degrees)  !
 --------------------------                            --------------------------
 ! Name  Definition              Value          Derivative Info.                !
 --------------------------------------------------------------------------------
 ! R1    R(1,2)                  1.4233         estimate D2E/DX2                !
 ! R2    R(1,3)                  1.4226         estimate D2E/DX2                !
 ! R3    R(1,32)                 1.4399         estimate D2E/DX2                !
 ! R4    R(2,4)                  1.4275         estimate D2E/DX2                !
 ! R5    R(2,9)                  1.4065         estimate D2E/DX2                !
 ! R6    R(3,6)                  1.4278         estimate D2E/DX2                !
 ! R7    R(3,7)                  1.4067         estimate D2E/DX2                !
 ! R8    R(4,5)                  1.4202         estimate D2E/DX2                !
 ! R9    R(4,8)                  1.4206         estimate D2E/DX2                !
 ! R10   R(5,6)                  1.4196         estimate D2E/DX2                !
 ! R11   R(5,11)                 1.4255         estimate D2E/DX2                !
 ! R12   R(6,10)                 1.4208         estimate D2E/DX2                !
 ! R13   R(7,40)                 1.3822         estimate D2E/DX2                !
 ! R14   R(7,44)                 1.0749         estimate D2E/DX2                !
 ! R15   R(8,19)                 1.3904         estimate D2E/DX2                !
 ! R16   R(8,51)                 1.0743         estimate D2E/DX2                !
 ! R17   R(9,39)                 1.3824         estimate D2E/DX2                !
 ! R18   R(9,50)                 1.0746         estimate D2E/DX2                !
 ! R19   R(10,17)                1.3907         estimate D2E/DX2                !
 ! R20   R(10,41)                1.075          estimate D2E/DX2                !
 ! R21   R(11,12)                1.4111         estimate D2E/DX2                !
 ! R22   R(11,13)                1.4118         estimate D2E/DX2                !
 ! R23   R(12,14)                1.4041         estimate D2E/DX2                !
 ! R24   R(12,19)                1.3902         estimate D2E/DX2                !
 ! R25   R(13,15)                1.4036         estimate D2E/DX2                !
 ! R26   R(13,17)                1.3905         estimate D2E/DX2                !
 ! R27   R(14,16)                1.3944         estimate D2E/DX2                !
 ! R28   R(14,18)                1.0845         estimate D2E/DX2                !
 ! R29   R(15,16)                1.3944         estimate D2E/DX2                !
 ! R30   R(15,20)                1.0841         estimate D2E/DX2                !
 ! R31   R(16,53)                1.032          estimate D2E/DX2                !
 ! R32   R(17,42)                1.0841         estimate D2E/DX2                !
 ! R33   R(19,52)                1.0838         estimate D2E/DX2                !
 ! R34   R(21,22)                1.3952         estimate D2E/DX2                !
 ! R35   R(21,23)                1.3944         estimate D2E/DX2                !
 ! R36   R(21,54)                1.032          estimate D2E/DX2                !
 ! R37   R(22,24)                1.4031         estimate D2E/DX2                !
 ! R38   R(22,33)                1.0835         estimate D2E/DX2                !
 ! R39   R(23,25)                1.4034         estimate D2E/DX2                !
 ! R40   R(23,34)                1.0834         estimate D2E/DX2                !
 ! R41   R(24,26)                1.4114         estimate D2E/DX2                !
 ! R42   R(24,35)                1.3902         estimate D2E/DX2                !
 ! R43   R(25,26)                1.4118         estimate D2E/DX2                !
 ! R44   R(25,36)                1.3905         estimate D2E/DX2                !
 ! R45   R(26,27)                1.4256         estimate D2E/DX2                !
 ! R46   R(27,28)                1.4196         estimate D2E/DX2                !
 ! R47   R(27,29)                1.4202         estimate D2E/DX2                !
 ! R48   R(28,30)                1.4276         estimate D2E/DX2                !
 ! R49   R(28,37)                1.4207         estimate D2E/DX2                !
 ! R50   R(29,31)                1.4274         estimate D2E/DX2                !
 ! R51   R(29,38)                1.4206         estimate D2E/DX2                !
 ! R52   R(30,32)                1.4226         estimate D2E/DX2                !
 ! R53   R(30,39)                1.4067         estimate D2E/DX2                !
 ! R54   R(31,32)                1.4224         estimate D2E/DX2                !
 ! R55   R(31,40)                1.4065         estimate D2E/DX2                !
 ! R56   R(35,38)                1.3914         estimate D2E/DX2                !
 ! R57   R(35,45)                1.0838         estimate D2E/DX2                !
 ! R58   R(36,37)                1.3907         estimate D2E/DX2                !
 ! R59   R(36,47)                1.0848         estimate D2E/DX2                !
 ! R60   R(37,48)                1.0752         estimate D2E/DX2                !
 ! R61   R(38,46)                1.0745         estimate D2E/DX2                !
 ! R62   R(39,49)                1.0757         estimate D2E/DX2                !
 ! R63   R(40,43)                1.0755         estimate D2E/DX2                !
 ! A1    A(2,1,3)              119.6868         estimate D2E/DX2                !
 ! A2    A(2,1,32)             120.1666         estimate D2E/DX2                !
 ! A3    A(3,1,32)             120.1466         estimate D2E/DX2                !
 ! A4    A(1,2,4)              120.3256         estimate D2E/DX2                !
 ! A5    A(1,2,9)              117.9188         estimate D2E/DX2                !
 ! A6    A(4,2,9)              121.7556         estimate D2E/DX2                !
 ! A7    A(1,3,6)              120.2794         estimate D2E/DX2                !
 ! A8    A(1,3,7)              117.9399         estimate D2E/DX2                !
 ! A9    A(6,3,7)              121.7806         estimate D2E/DX2                !
 ! A10   A(2,4,5)              119.4706         estimate D2E/DX2                !
 ! A11   A(2,4,8)              122.4787         estimate D2E/DX2                !
 ! A12   A(5,4,8)              118.0508         estimate D2E/DX2                !
 ! A13   A(4,5,6)              120.7058         estimate D2E/DX2                !
 ! A14   A(4,5,11)             119.6175         estimate D2E/DX2                !
 ! A15   A(6,5,11)             119.6766         estimate D2E/DX2                !
 ! A16   A(3,6,5)              119.5318         estimate D2E/DX2                !
 ! A17   A(3,6,10)             122.4452         estimate D2E/DX2                !
 ! A18   A(5,6,10)             118.023          estimate D2E/DX2                !
 ! A19   A(3,7,40)             121.8824         estimate D2E/DX2                !
 ! A20   A(3,7,44)             123.2888         estimate D2E/DX2                !
 ! A21   A(40,7,44)            114.8288         estimate D2E/DX2                !
 ! A22   A(4,8,19)             121.7434         estimate D2E/DX2                !
 ! A23   A(4,8,51)             123.5335         estimate D2E/DX2                !
 ! A24   A(19,8,51)            114.7231         estimate D2E/DX2                !
 ! A25   A(2,9,39)             121.9054         estimate D2E/DX2                !
 ! A26   A(2,9,50)             123.3004         estimate D2E/DX2                !
 ! A27   A(39,9,50)            114.7943         estimate D2E/DX2                !
 ! A28   A(6,10,17)            121.749          estimate D2E/DX2                !
 ! A29   A(6,10,41)            123.6144         estimate D2E/DX2                !
 ! A30   A(17,10,41)           114.6366         estimate D2E/DX2                !
 ! A31   A(5,11,12)            120.4991         estimate D2E/DX2                !
 ! A32   A(5,11,13)            120.495          estimate D2E/DX2                !
 ! A33   A(12,11,13)           119.0059         estimate D2E/DX2                !
 ! A34   A(11,12,14)           120.1612         estimate D2E/DX2                !
 ! A35   A(11,12,19)           119.5789         estimate D2E/DX2                !
 ! A36   A(14,12,19)           120.2598         estimate D2E/DX2                !
 ! A37   A(11,13,15)           120.1995         estimate D2E/DX2                !
 ! A38   A(11,13,17)           119.5208         estimate D2E/DX2                !
 ! A39   A(15,13,17)           120.2797         estimate D2E/DX2                !
 ! A40   A(12,14,16)           120.2652         estimate D2E/DX2                !
 ! A41   A(12,14,18)           120.6877         estimate D2E/DX2                !
 ! A42   A(16,14,18)           119.0472         estimate D2E/DX2                !
 ! A43   A(13,15,16)           120.2332         estimate D2E/DX2                !
 ! A44   A(13,15,20)           120.6952         estimate D2E/DX2                !
 ! A45   A(16,15,20)           119.0716         estimate D2E/DX2                !
 ! A46   A(14,16,15)           120.1349         estimate D2E/DX2                !
 ! A47   A(14,16,53)           119.9327         estimate D2E/DX2                !
 ! A48   A(15,16,53)           119.9324         estimate D2E/DX2                !
 ! A49   A(10,17,13)           120.5354         estimate D2E/DX2                !
 ! A50   A(10,17,42)           119.0555         estimate D2E/DX2                !
 ! A51   A(13,17,42)           120.4091         estimate D2E/DX2                !
 ! A52   A(8,19,12)            120.5103         estimate D2E/DX2                !
 ! A53   A(8,19,52)            119.0657         estimate D2E/DX2                !
 ! A54   A(12,19,52)           120.424          estimate D2E/DX2                !
 ! A55   A(22,21,23)           120.1624         estimate D2E/DX2                !
 ! A56   A(22,21,54)           119.9187         estimate D2E/DX2                !
 ! A57   A(23,21,54)           119.9189         estimate D2E/DX2                !
 ! A58   A(21,22,24)           120.2286         estimate D2E/DX2                !
 ! A59   A(21,22,33)           119.0576         estimate D2E/DX2                !
 ! A60   A(24,22,33)           120.7138         estimate D2E/DX2                !
 ! A61   A(21,23,25)           120.1935         estimate D2E/DX2                !
 ! A62   A(21,23,34)           119.0355         estimate D2E/DX2                !
 ! A63   A(25,23,34)           120.7709         estimate D2E/DX2                !
 ! A64   A(22,24,26)           120.2085         estimate D2E/DX2                !
 ! A65   A(22,24,35)           120.2506         estimate D2E/DX2                !
 ! A66   A(26,24,35)           119.5409         estimate D2E/DX2                !
 ! A67   A(23,25,26)           120.2392         estimate D2E/DX2                !
 ! A68   A(23,25,36)           120.2407         estimate D2E/DX2                !
 ! A69   A(26,25,36)           119.5201         estimate D2E/DX2                !
 ! A70   A(24,26,25)           118.9678         estimate D2E/DX2                !
 ! A71   A(24,26,27)           120.5371         estimate D2E/DX2                !
 ! A72   A(25,26,27)           120.4951         estimate D2E/DX2                !
 ! A73   A(26,27,28)           119.6759         estimate D2E/DX2                !
 ! A74   A(26,27,29)           119.6175         estimate D2E/DX2                !
 ! A75   A(28,27,29)           120.7065         estimate D2E/DX2                !
 ! A76   A(27,28,30)           119.4919         estimate D2E/DX2                !
 ! A77   A(27,28,37)           118.0244         estimate D2E/DX2                !
 ! A78   A(30,28,37)           122.4836         estimate D2E/DX2                !
 ! A79   A(27,29,31)           119.4705         estimate D2E/DX2                !
 ! A80   A(27,29,38)           118.0508         estimate D2E/DX2                !
 ! A81   A(31,29,38)           122.4787         estimate D2E/DX2                !
 ! A82   A(28,30,32)           120.3186         estimate D2E/DX2                !
 ! A83   A(28,30,39)           121.7415         estimate D2E/DX2                !
 ! A84   A(32,30,39)           117.9399         estimate D2E/DX2                !
 ! A85   A(29,31,32)           120.338          estimate D2E/DX2                !
 ! A86   A(29,31,40)           121.7563         estimate D2E/DX2                !
 ! A87   A(32,31,40)           117.9056         estimate D2E/DX2                !
 ! A88   A(1,32,30)            120.1466         estimate D2E/DX2                !
 ! A89   A(1,32,31)            120.179          estimate D2E/DX2                !
 ! A90   A(30,32,31)           119.6743         estimate D2E/DX2                !
 ! A91   A(24,35,38)           120.5193         estimate D2E/DX2                !
 ! A92   A(24,35,45)           120.424          estimate D2E/DX2                !
 ! A93   A(38,35,45)           119.0567         estimate D2E/DX2                !
 ! A94   A(25,36,37)           120.5361         estimate D2E/DX2                !
 ! A95   A(25,36,47)           120.4443         estimate D2E/DX2                !
 ! A96   A(37,36,47)           119.0196         estimate D2E/DX2                !
 ! A97   A(28,37,36)           121.7484         estimate D2E/DX2                !
 ! A98   A(28,37,48)           123.5627         estimate D2E/DX2                !
 ! A99   A(36,37,48)           114.6889         estimate D2E/DX2                !
 ! A100  A(29,38,35)           121.7343         estimate D2E/DX2                !
 ! A101  A(29,38,46)           123.6083         estimate D2E/DX2                !
 ! A102  A(35,38,46)           114.6574         estimate D2E/DX2                !
 ! A103  A(9,39,30)            121.9227         estimate D2E/DX2                !
 ! A104  A(9,39,49)            114.7556         estimate D2E/DX2                !
 ! A105  A(30,39,49)           123.3216         estimate D2E/DX2                !
 ! A106  A(7,40,31)            121.9464         estimate D2E/DX2                !
 ! A107  A(7,40,43)            114.7433         estimate D2E/DX2                !
 ! A108  A(31,40,43)           123.3103         estimate D2E/DX2                !
 ! D1    D(3,1,2,4)              0.0023         estimate D2E/DX2                !
 ! D2    D(3,1,2,9)            179.9732         estimate D2E/DX2                !
 ! D3    D(32,1,2,4)          -179.9878         estimate D2E/DX2                !
 ! D4    D(32,1,2,9)            -0.0169         estimate D2E/DX2                !
 ! D5    D(2,1,3,6)              0.0448         estimate D2E/DX2                !
 ! D6    D(2,1,3,7)            179.9827         estimate D2E/DX2                !
 ! D7    D(32,1,3,6)          -179.9651         estimate D2E/DX2                !
 ! D8    D(32,1,3,7)            -0.0271         estimate D2E/DX2                !
 ! D9    D(2,1,32,30)           -0.0099         estimate D2E/DX2                !
 ! D10   D(2,1,32,31)         -179.9532         estimate D2E/DX2                !
 ! D11   D(3,1,32,30)          180.0            estimate D2E/DX2                !
 ! D12   D(3,1,32,31)            0.0567         estimate D2E/DX2                !
 ! D13   D(1,2,4,5)             -0.0368         estimate D2E/DX2                !
 ! D14   D(1,2,4,8)            179.9979         estimate D2E/DX2                !
 ! D15   D(9,2,4,5)            179.9934         estimate D2E/DX2                !
 ! D16   D(9,2,4,8)              0.0282         estimate D2E/DX2                !
 ! D17   D(1,2,9,39)             0.0269         estimate D2E/DX2                !
 ! D18   D(1,2,9,50)          -179.9809         estimate D2E/DX2                !
 ! D19   D(4,2,9,39)           179.9974         estimate D2E/DX2                !
 ! D20   D(4,2,9,50)            -0.0104         estimate D2E/DX2                !
 ! D21   D(1,3,6,5)             -0.0569         estimate D2E/DX2                !
 ! D22   D(1,3,6,10)          -179.9942         estimate D2E/DX2                !
 ! D23   D(7,3,6,5)           -179.9924         estimate D2E/DX2                !
 ! D24   D(7,3,6,10)             0.0703         estimate D2E/DX2                !
 ! D25   D(1,3,7,40)             0.0177         estimate D2E/DX2                !
 ! D26   D(1,3,7,44)          -179.9854         estimate D2E/DX2                !
 ! D27   D(6,3,7,40)           179.9547         estimate D2E/DX2                !
 ! D28   D(6,3,7,44)            -0.0484         estimate D2E/DX2                !
 ! D29   D(2,4,5,6)              0.0245         estimate D2E/DX2                !
 ! D30   D(2,4,5,11)          -179.9094         estimate D2E/DX2                !
 ! D31   D(8,4,5,6)            179.9914         estimate D2E/DX2                !
 ! D32   D(8,4,5,11)             0.0574         estimate D2E/DX2                !
 ! D33   D(2,4,8,19)           179.9402         estimate D2E/DX2                !
 ! D34   D(2,4,8,51)            -0.0656         estimate D2E/DX2                !
 ! D35   D(5,4,8,19)            -0.0255         estimate D2E/DX2                !
 ! D36   D(5,4,8,51)           179.9687         estimate D2E/DX2                !
 ! D37   D(4,5,6,3)              0.022          estimate D2E/DX2                !
 ! D38   D(4,5,6,10)           179.9621         estimate D2E/DX2                !
 ! D39   D(11,5,6,3)           179.9559         estimate D2E/DX2                !
 ! D40   D(11,5,6,10)           -0.1041         estimate D2E/DX2                !
 ! D41   D(4,5,11,12)           -0.0532         estimate D2E/DX2                !
 ! D42   D(4,5,11,13)          179.9874         estimate D2E/DX2                !
 ! D43   D(6,5,11,12)         -179.9878         estimate D2E/DX2                !
 ! D44   D(6,5,11,13)            0.0528         estimate D2E/DX2                !
 ! D45   D(3,6,10,17)         -179.9891         estimate D2E/DX2                !
 ! D46   D(3,6,10,41)           -0.0246         estimate D2E/DX2                !
 ! D47   D(5,6,10,17)            0.0727         estimate D2E/DX2                !
 ! D48   D(5,6,10,41)         -179.9628         estimate D2E/DX2                !
 ! D49   D(3,7,40,31)           -0.0382         estimate D2E/DX2                !
 ! D50   D(3,7,40,43)         -179.9979         estimate D2E/DX2                !
 ! D51   D(44,7,40,31)         179.9646         estimate D2E/DX2                !
 ! D52   D(44,7,40,43)           0.005          estimate D2E/DX2                !
 ! D53   D(4,8,19,12)           -0.0127         estimate D2E/DX2                !
 ! D54   D(4,8,19,52)         -179.9659         estimate D2E/DX2                !
 ! D55   D(51,8,19,12)         179.9926         estimate D2E/DX2                !
 ! D56   D(51,8,19,52)           0.0394         estimate D2E/DX2                !
 ! D57   D(2,9,39,30)           -0.0095         estimate D2E/DX2                !
 ! D58   D(2,9,39,49)          179.9871         estimate D2E/DX2                !
 ! D59   D(50,9,39,30)         179.9977         estimate D2E/DX2                !
 ! D60   D(50,9,39,49)          -0.0057         estimate D2E/DX2                !
 ! D61   D(6,10,17,13)           0.014          estimate D2E/DX2                !
 ! D62   D(6,10,17,42)         179.9318         estimate D2E/DX2                !
 ! D63   D(41,10,17,13)       -179.9535         estimate D2E/DX2                !
 ! D64   D(41,10,17,42)         -0.0357         estimate D2E/DX2                !
 ! D65   D(5,11,12,14)         179.9727         estimate D2E/DX2                !
 ! D66   D(5,11,12,19)           0.0148         estimate D2E/DX2                !
 ! D67   D(13,11,12,14)         -0.0673         estimate D2E/DX2                !
 ! D68   D(13,11,12,19)        179.9749         estimate D2E/DX2                !
 ! D69   D(5,11,13,15)        -179.9734         estimate D2E/DX2                !
 ! D70   D(5,11,13,17)           0.0346         estimate D2E/DX2                !
 ! D71   D(12,11,13,15)          0.0666         estimate D2E/DX2                !
 ! D72   D(12,11,13,17)       -179.9254         estimate D2E/DX2                !
 ! D73   D(11,12,14,16)          0.0403         estimate D2E/DX2                !
 ! D74   D(11,12,14,18)       -179.9433         estimate D2E/DX2                !
 ! D75   D(19,12,14,16)        179.9979         estimate D2E/DX2                !
 ! D76   D(19,12,14,18)          0.0143         estimate D2E/DX2                !
 ! D77   D(11,12,19,8)           0.0181         estimate D2E/DX2                !
 ! D78   D(11,12,19,52)        179.9708         estimate D2E/DX2                !
 ! D79   D(14,12,19,8)        -179.9397         estimate D2E/DX2                !
 ! D80   D(14,12,19,52)          0.0129         estimate D2E/DX2                !
 ! D81   D(11,13,15,16)         -0.0389         estimate D2E/DX2                !
 ! D82   D(11,13,15,20)       -179.9797         estimate D2E/DX2                !
 ! D83   D(17,13,15,16)        179.9531         estimate D2E/DX2                !
 ! D84   D(17,13,15,20)          0.0123         estimate D2E/DX2                !
 ! D85   D(11,13,17,10)         -0.0681         estimate D2E/DX2                !
 ! D86   D(11,13,17,42)       -179.9847         estimate D2E/DX2                !
 ! D87   D(15,13,17,10)        179.9399         estimate D2E/DX2                !
 ! D88   D(15,13,17,42)          0.0233         estimate D2E/DX2                !
 ! D89   D(12,14,16,15)         -0.0116         estimate D2E/DX2                !
 ! D90   D(12,14,16,53)        179.9886         estimate D2E/DX2                !
 ! D91   D(18,14,16,15)        179.9722         estimate D2E/DX2                !
 ! D92   D(18,14,16,53)         -0.0275         estimate D2E/DX2                !
 ! D93   D(13,15,16,14)          0.0109         estimate D2E/DX2                !
 ! D94   D(13,15,16,53)       -179.9893         estimate D2E/DX2                !
 ! D95   D(20,15,16,14)        179.9526         estimate D2E/DX2                !
 ! D96   D(20,15,16,53)         -0.0476         estimate D2E/DX2                !
 ! D97   D(23,21,22,24)          0.0587         estimate D2E/DX2                !
 ! D98   D(23,21,22,33)        179.9681         estimate D2E/DX2                !
 ! D99   D(54,21,22,24)       -179.9412         estimate D2E/DX2                !
 ! D100  D(54,21,22,33)         -0.0317         estimate D2E/DX2                !
 ! D101  D(22,21,23,25)         -0.0584         estimate D2E/DX2                !
 ! D102  D(22,21,23,34)        179.939          estimate D2E/DX2                !
 ! D103  D(54,21,23,25)        179.9415         estimate D2E/DX2                !
 ! D104  D(54,21,23,34)         -0.0612         estimate D2E/DX2                !
 ! D105  D(21,22,24,26)         -0.0393         estimate D2E/DX2                !
 ! D106  D(21,22,24,35)        179.9544         estimate D2E/DX2                !
 ! D107  D(33,22,24,26)       -179.9472         estimate D2E/DX2                !
 ! D108  D(33,22,24,35)          0.0465         estimate D2E/DX2                !
 ! D109  D(21,23,25,26)          0.0387         estimate D2E/DX2                !
 ! D110  D(21,23,25,36)        179.9992         estimate D2E/DX2                !
 ! D111  D(34,23,25,26)       -179.9586         estimate D2E/DX2                !
 ! D112  D(34,23,25,36)          0.0019         estimate D2E/DX2                !
 ! D113  D(22,24,26,25)          0.0194         estimate D2E/DX2                !
 ! D114  D(22,24,26,27)       -179.9266         estimate D2E/DX2                !
 ! D115  D(35,24,26,25)       -179.9743         estimate D2E/DX2                !
 ! D116  D(35,24,26,27)          0.0797         estimate D2E/DX2                !
 ! D117  D(22,24,35,38)        179.9415         estimate D2E/DX2                !
 ! D118  D(22,24,35,45)         -0.012          estimate D2E/DX2                !
 ! D119  D(26,24,35,38)         -0.0648         estimate D2E/DX2                !
 ! D120  D(26,24,35,45)        179.9817         estimate D2E/DX2                !
 ! D121  D(23,25,26,24)         -0.0191         estimate D2E/DX2                !
 ! D122  D(23,25,26,27)        179.9269         estimate D2E/DX2                !
 ! D123  D(36,25,26,24)       -179.9799         estimate D2E/DX2                !
 ! D124  D(36,25,26,27)         -0.0339         estimate D2E/DX2                !
 ! D125  D(23,25,36,37)       -179.9404         estimate D2E/DX2                !
 ! D126  D(23,25,36,47)          0.025          estimate D2E/DX2                !
 ! D127  D(26,25,36,37)          0.0204         estimate D2E/DX2                !
 ! D128  D(26,25,36,47)        179.9858         estimate D2E/DX2                !
 ! D129  D(24,26,27,28)        179.9854         estimate D2E/DX2                !
 ! D130  D(24,26,27,29)         -0.0414         estimate D2E/DX2                !
 ! D131  D(25,26,27,28)          0.0402         estimate D2E/DX2                !
 ! D132  D(25,26,27,29)       -179.9865         estimate D2E/DX2                !
 ! D133  D(26,27,28,30)       -179.956          estimate D2E/DX2                !
 ! D134  D(26,27,28,37)         -0.0323         estimate D2E/DX2                !
 ! D135  D(29,27,28,30)          0.0711         estimate D2E/DX2                !
 ! D136  D(29,27,28,37)        179.9948         estimate D2E/DX2                !
 ! D137  D(26,27,29,31)       -179.9983         estimate D2E/DX2                !
 ! D138  D(26,27,29,38)         -0.0112         estimate D2E/DX2                !
 ! D139  D(28,27,29,31)         -0.0254         estimate D2E/DX2                !
 ! D140  D(28,27,29,38)        179.9617         estimate D2E/DX2                !
 ! D141  D(27,28,30,32)         -0.0358         estimate D2E/DX2                !
 ! D142  D(27,28,30,39)        179.9482         estimate D2E/DX2                !
 ! D143  D(37,28,30,32)       -179.9559         estimate D2E/DX2                !
 ! D144  D(37,28,30,39)          0.0281         estimate D2E/DX2                !
 ! D145  D(27,28,37,36)          0.0194         estimate D2E/DX2                !
 ! D146  D(27,28,37,48)       -179.9981         estimate D2E/DX2                !
 ! D147  D(30,28,37,36)        179.9407         estimate D2E/DX2                !
 ! D148  D(30,28,37,48)         -0.0769         estimate D2E/DX2                !
 ! D149  D(27,29,31,32)         -0.0562         estimate D2E/DX2                !
 ! D150  D(27,29,31,40)       -179.9434         estimate D2E/DX2                !
 ! D151  D(38,29,31,32)        179.9573         estimate D2E/DX2                !
 ! D152  D(38,29,31,40)          0.0701         estimate D2E/DX2                !
 ! D153  D(27,29,38,35)          0.0265         estimate D2E/DX2                !
 ! D154  D(27,29,38,46)       -179.9702         estimate D2E/DX2                !
 ! D155  D(31,29,38,35)       -179.9868         estimate D2E/DX2                !
 ! D156  D(31,29,38,46)          0.0165         estimate D2E/DX2                !
 ! D157  D(28,30,32,1)        -179.9883         estimate D2E/DX2                !
 ! D158  D(28,30,32,31)         -0.0446         estimate D2E/DX2                !
 ! D159  D(39,30,32,1)           0.0271         estimate D2E/DX2                !
 ! D160  D(39,30,32,31)        179.9707         estimate D2E/DX2                !
 ! D161  D(28,30,39,9)         179.9976         estimate D2E/DX2                !
 ! D162  D(28,30,39,49)          0.0013         estimate D2E/DX2                !
 ! D163  D(32,30,39,9)          -0.018          estimate D2E/DX2                !
 ! D164  D(32,30,39,49)        179.9856         estimate D2E/DX2                !
 ! D165  D(29,31,32,1)        -179.9655         estimate D2E/DX2                !
 ! D166  D(29,31,32,30)          0.0909         estimate D2E/DX2                !
 ! D167  D(40,31,32,1)          -0.0741         estimate D2E/DX2                !
 ! D168  D(40,31,32,30)        179.9823         estimate D2E/DX2                !
 ! D169  D(29,31,40,7)         179.9554         estimate D2E/DX2                !
 ! D170  D(29,31,40,43)         -0.0885         estimate D2E/DX2                !
 ! D171  D(32,31,40,7)           0.0656         estimate D2E/DX2                !
 ! D172  D(32,31,40,43)       -179.9783         estimate D2E/DX2                !
 ! D173  D(24,35,38,29)          0.0117         estimate D2E/DX2                !
 ! D174  D(24,35,38,46)       -179.9913         estimate D2E/DX2                !
 ! D175  D(45,35,38,29)        179.9659         estimate D2E/DX2                !
 ! D176  D(45,35,38,46)         -0.0371         estimate D2E/DX2                !
 ! D177  D(25,36,37,28)         -0.0136         estimate D2E/DX2                !
 ! D178  D(25,36,37,48)       -179.9975         estimate D2E/DX2                !
 ! D179  D(47,36,37,28)       -179.9795         estimate D2E/DX2                !
 ! D180  D(47,36,37,48)          0.0366         estimate D2E/DX2                !
 --------------------------------------------------------------------------------
 Trust Radius=3.00D-01 FncErr=1.00D-07 GrdErr=1.00D-06 EigMax=2.50D+02 EigMin=1.00D-04
 Number of steps in this run=    324 maximum allowed number of steps=    324.
 GradGradGradGradGradGradGradGradGradGradGradGradGradGradGradGradGradGrad

 Stoichiometry    C36H18
 Framework group  C1[X(C36H18)]
 Deg. of freedom   156
 Full point group                 C1      NOp   1
 Largest Abelian subgroup         C1      NOp   1
 Largest concise Abelian subgroup C1      NOp   1
                         Standard orientation:                         
 ---------------------------------------------------------------------
 Center     Atomic      Atomic             Coordinates (Angstroms)
 Number     Number       Type             X           Y           Z
 ---------------------------------------------------------------------
      1          6           0        0.719889    0.000423    0.000460
      2          6           0        1.435026   -1.230182    0.000603
      3          6           0        1.434444    1.230561    0.001111
      4          6           0        2.862489   -1.234257    0.001446
      5          6           0        3.564712    0.000164    0.001346
      6          6           0        2.862224    1.233757    0.000942
      7          6           0        0.690921    2.424667    0.000569
      8          6           0        3.621932   -2.434878    0.001666
      9          6           0        0.691359   -2.424041    0.000525
     10          6           0        3.621763    2.434444    0.001692
     11          6           0        4.990242   -0.000249    0.000225
     12          6           0        5.706054   -1.216309    0.000347
     13          6           0        5.707021    1.216033   -0.000161
     14          6           0        7.110089   -1.208438   -0.001340
     15          6           0        7.110610    1.208386   -0.001829
     16          6           0        7.806130   -0.000133   -0.002298
     17          6           0        5.012440    2.420660    0.001292
     18          1           0        7.668779   -2.137930   -0.002185
     19          6           0        5.012243   -2.421005    0.001257
     20          1           0        7.669105    2.137608   -0.001806
     21          6           0       -7.805796   -0.000855    0.001623
     22          6           0       -7.109964    1.208424    0.001669
     23          6           0       -7.110276   -1.209374    0.001154
     24          6           0       -5.706903    1.216065    0.000002
     25          6           0       -5.706917   -1.216048   -0.000510
     26          6           0       -4.990138    0.000235   -0.000897
     27          6           0       -3.564587   -0.000178   -0.001017
     28          6           0       -2.862120   -1.233771   -0.001613
     29          6           0       -2.862365    1.234244   -0.001117
     30          6           0       -1.434549   -1.229601   -0.000778
     31          6           0       -1.434922    1.230167   -0.001274
     32          6           0       -0.719994    0.000537   -0.000127
     33          1           0       -7.668445    2.136942    0.001510
     34          1           0       -7.668981   -2.137621    0.002135
     35          6           0       -5.013091    2.420762   -0.000908
     36          6           0       -5.012316   -2.420674   -0.000963
     37          6           0       -3.621639   -2.434457   -0.001363
     38          6           0       -3.621808    2.434864   -0.001338
     39          6           0       -0.691026   -2.423707   -0.000236
     40          6           0       -0.691234    2.424027   -0.000196
     41          1           0        3.183349    3.415970    0.002048
     42          1           0        5.548291    3.363032    0.000769
     43          1           0       -1.141859    3.400619   -0.000588
     44          1           0        1.141825    3.400408    0.000761
     45          1           0       -5.549064    3.362812   -0.000535
     46          1           0       -3.183466    3.415862   -0.001892
     47          1           0       -5.547937   -3.364019   -0.000444
     48          1           0       -3.182252   -3.415754   -0.001739
     49          1           0       -1.141700   -3.400421   -0.000432
     50          1           0        1.141754   -3.399659    0.000921
     51          1           0        3.182388   -3.415132    0.002245
     52          1           0        5.548215   -3.363055    0.000884
     53          1           0        8.838127   -0.000337   -0.003360
     54          1           0       -8.837792   -0.000894    0.001934
 ---------------------------------------------------------------------
 Rotational constants (GHZ):           0.3910477           0.0544433           0.0477898
 Standard basis: 6-31G(d) (6D, 7F)
 There are   576 symmetry adapted cartesian basis functions of A   symmetry.
 There are   576 symmetry adapted basis functions of A   symmetry.
   576 basis functions,  1080 primitive gaussians,   576 cartesian basis functions
   117 alpha electrons      117 beta electrons
       nuclear repulsion energy      3296.4222436338 Hartrees.
 NAtoms=   54 NActive=   54 NUniq=   54 SFac= 1.00D+00 NAtFMM=   60 NAOKFM=F Big=F
 Integral buffers will be    131072 words long.
 Raffenetti 2 integral format.
 Two-electron integral symmetry is turned on.
 One-electron integrals computed using PRISM.
 NBasis=   576 RedAO= T EigKep=  6.35D-05  NBF=   576
 NBsUse=   576 1.00D-06 EigRej= -1.00D+00 NBFU=   576
 ExpMin= 1.61D-01 ExpMax= 3.05D+03 ExpMxC= 4.57D+02 IAcc=3 IRadAn=         5 AccDes= 0.00D+00
 Harris functional with IExCor=  402 and IRadAn=       5 diagonalized for initial guess.
 HarFok:  IExCor=  402 AccDes= 0.00D+00 IRadAn=         5 IDoV= 1 UseB2=F ITyADJ=14
 ICtDFT=  3500011 ScaDFX=  1.000000  1.000000  1.000000  1.000000
 FoFCou: FMM=F IPFlag=           0 FMFlag=      100000 FMFlg1=           0
         NFxFlg=           0 DoJE=T BraDBF=F KetDBF=T FulRan=T
         wScrn=  0.000000 ICntrl=       500 IOpCl=  0 I1Cent=   200000004 NGrid=           0
         NMat0=    1 NMatS0=      1 NMatT0=    0 NMatD0=    1 NMtDS0=    0 NMtDT0=    0
 Petite list used in FoFCou.
 Requested convergence on RMS density matrix=1.00D-08 within 128 cycles.
 Requested convergence on MAX density matrix=1.00D-06.
 Requested convergence on             energy=1.00D-06.
 No special actions if energy rises.
 Integral accuracy reduced to 1.0D-05 until final iterations.
 Initial convergence to 1.0D-05 achieved.  Increase integral accuracy.
 SCF Done:  E(RB3LYP) =  -1382.78916811     A.U. after   15 cycles
            NFock= 15  Conv=0.56D-08     -V/T= 2.0090

 **********************************************************************

            Population analysis using the SCF Density.

 **********************************************************************

 Orbital symmetries:
       Occupied  (A) (A) (A) (A) (A) (A) (A) (A) (A) (A) (A) (A)
                 (A) (A) (A) (A) (A) (A) (A) (A) (A) (A) (A) (A)
                 (A) (A) (A) (A) (A) (A) (A) (A) (A) (A) (A) (A)
                 (A) (A) (A) (A) (A) (A) (A) (A) (A) (A) (A) (A)
                 (A) (A) (A) (A) (A) (A) (A) (A) (A) (A) (A) (A)
                 (A) (A) (A) (A) (A) (A) (A) (A) (A) (A) (A) (A)
                 (A) (A) (A) (A) (A) (A) (A) (A) (A) (A) (A) (A)
                 (A) (A) (A) (A) (A) (A) (A) (A) (A) (A) (A) (A)
                 (A) (A) (A) (A) (A) (A) (A) (A) (A) (A) (A) (A)
                 (A) (A) (A) (A) (A) (A) (A) (A) (A)
       Virtual   (A) (A) (A) (A) (A) (A) (A) (A) (A) (A) (A) (A)
                 (A) (A) (A) (A) (A) (A) (A) (A) (A) (A) (A) (A)
                 (A) (A) (A) (A) (A) (A) (A) (A) (A) (A) (A) (A)
                 (A) (A) (A) (A) (A) (A) (A) (A) (A) (A) (A) (A)
                 (A) (A) (A) (A) (A) (A) (A) (A) (A) (A) (A) (A)
                 (A) (A) (A) (A) (A) (A) (A) (A) (A) (A) (A) (A)
                 (A) (A) (A) (A) (A) (A) (A) (A) (A) (A) (A) (A)
                 (A) (A) (A) (A) (A) (A) (A) (A) (A) (A) (A) (A)
                 (A) (A) (A) (A) (A) (A) (A) (A) (A) (A) (A) (A)
                 (A) (A) (A) (A) (A) (A) (A) (A) (A) (A) (A) (A)
                 (A) (A) (A) (A) (A) (A) (A) (A) (A) (A) (A) (A)
                 (A) (A) (A) (A) (A) (A) (A) (A) (A) (A) (A) (A)
                 (A) (A) (A) (A) (A) (A) (A) (A) (A) (A) (A) (A)
                 (A) (A) (A) (A) (A) (A) (A) (A) (A) (A) (A) (A)
                 (A) (A) (A) (A) (A) (A) (A) (A) (A) (A) (A) (A)
                 (A) (A) (A) (A) (A) (A) (A) (A) (A) (A) (A) (A)
                 (A) (A) (A) (A) (A) (A) (A) (A) (A) (A) (A) (A)
                 (A) (A) (A) (A) (A) (A) (A) (A) (A) (A) (A) (A)
                 (A) (A) (A) (A) (A) (A) (A) (A) (A) (A) (A) (A)
                 (A) (A) (A) (A) (A) (A) (A) (A) (A) (A) (A) (A)
                 (A) (A) (A) (A) (A) (A) (A) (A) (A) (A) (A) (A)
                 (A) (A) (A) (A) (A) (A) (A) (A) (A) (A) (A) (A)
                 (A) (A) (A) (A) (A) (A) (A) (A) (A) (A) (A) (A)
                 (A) (A) (A) (A) (A) (A) (A) (A) (A) (A) (A) (A)
                 (A) (A) (A) (A) (A) (A) (A) (A) (A) (A) (A) (A)
                 (A) (A) (A) (A) (A) (A) (A) (A) (A) (A) (A) (A)
                 (A) (A) (A) (A) (A) (A) (A) (A) (A) (A) (A) (A)
                 (A) (A) (A) (A) (A) (A) (A) (A) (A) (A) (A) (A)
                 (A) (A) (A) (A) (A) (A) (A) (A) (A) (A) (A) (A)
                 (A) (A) (A) (A) (A) (A) (A) (A) (A) (A) (A) (A)
                 (A) (A) (A) (A) (A) (A) (A) (A) (A) (A) (A) (A)
                 (A) (A) (A) (A) (A) (A) (A) (A) (A) (A) (A) (A)
                 (A) (A) (A) (A) (A) (A) (A) (A) (A) (A) (A) (A)
                 (A) (A) (A) (A) (A) (A) (A) (A) (A) (A) (A) (A)
                 (A) (A) (A) (A) (A) (A) (A) (A) (A) (A) (A) (A)
                 (A) (A) (A) (A) (A) (A) (A) (A) (A) (A) (A) (A)
                 (A) (A) (A) (A) (A) (A) (A) (A) (A) (A) (A) (A)
                 (A) (A) (A) (A) (A) (A) (A) (A) (A) (A) (A) (A)
                 (A) (A) (A)
 The electronic state is 1-A.
 Alpha  occ. eigenvalues --  -10.20056 -10.20022 -10.20018 -10.20014 -10.20012
 Alpha  occ. eigenvalues --  -10.20012 -10.19861 -10.19858 -10.19855 -10.19852
 Alpha  occ. eigenvalues --  -10.19821 -10.19819 -10.19457 -10.19453 -10.19221
 Alpha  occ. eigenvalues --  -10.19221 -10.19215 -10.19212 -10.19103 -10.19102
 Alpha  occ. eigenvalues --  -10.19099 -10.19092 -10.18880 -10.18880 -10.18876
 Alpha  occ. eigenvalues --  -10.18875 -10.18870 -10.18870 -10.18868 -10.18866
 Alpha  occ. eigenvalues --  -10.18838 -10.18837 -10.18776 -10.18776 -10.18471
 Alpha  occ. eigenvalues --  -10.18468  -0.90378  -0.89475  -0.87752  -0.84946
 Alpha  occ. eigenvalues --   -0.84377  -0.83342  -0.82272  -0.81800  -0.79014
 Alpha  occ. eigenvalues --   -0.77769  -0.76190  -0.75096  -0.74734  -0.74636
 Alpha  occ. eigenvalues --   -0.73789  -0.72212  -0.71708  -0.68624  -0.64710
 Alpha  occ. eigenvalues --   -0.64529  -0.64367  -0.62958  -0.62277  -0.61605
 Alpha  occ. eigenvalues --   -0.61008  -0.60723  -0.58819  -0.56057  -0.54185
 Alpha  occ. eigenvalues --   -0.53749  -0.52607  -0.51786  -0.51312  -0.50682
 Alpha  occ. eigenvalues --   -0.49903  -0.49810  -0.48866  -0.48730  -0.47173
 Alpha  occ. eigenvalues --   -0.45884  -0.45285  -0.44188  -0.43430  -0.43278
 Alpha  occ. eigenvalues --   -0.42885  -0.42448  -0.42414  -0.42061  -0.41230
 Alpha  occ. eigenvalues --   -0.41022  -0.40685  -0.40373  -0.39328  -0.39118
 Alpha  occ. eigenvalues --   -0.38857  -0.38831  -0.38591  -0.38004  -0.37587
 Alpha  occ. eigenvalues --   -0.37103  -0.35958  -0.35626  -0.35624  -0.34693
 Alpha  occ. eigenvalues --   -0.34328  -0.32982  -0.32749  -0.32593  -0.32339
 Alpha  occ. eigenvalues --   -0.31641  -0.31175  -0.28780  -0.28419  -0.25703
 Alpha  occ. eigenvalues --   -0.25013  -0.24955  -0.24736  -0.24536  -0.22101
 Alpha  occ. eigenvalues --   -0.20705  -0.16250
 Alpha virt. eigenvalues --   -0.08785  -0.04393  -0.03689  -0.01952  -0.00532
 Alpha virt. eigenvalues --   -0.00318  -0.00203   0.01301   0.03417   0.04710
 Alpha virt. eigenvalues --    0.08474   0.08917   0.09783   0.09872   0.10146
 Alpha virt. eigenvalues --    0.10890   0.11517   0.11936   0.12068   0.13338
 Alpha virt. eigenvalues --    0.13844   0.14550   0.14839   0.14994   0.15130
 Alpha virt. eigenvalues --    0.16442   0.17902   0.18088   0.19197   0.20331
 Alpha virt. eigenvalues --    0.20602   0.22013   0.22517   0.23026   0.23132
 Alpha virt. eigenvalues --    0.23396   0.24387   0.24584   0.25000   0.25759
 Alpha virt. eigenvalues --    0.26097   0.27009   0.27082   0.28016   0.28496
 Alpha virt. eigenvalues --    0.28509   0.29331   0.29400   0.30785   0.30870
 Alpha virt. eigenvalues --    0.31863   0.32902   0.34185   0.34746   0.34901
 Alpha virt. eigenvalues --    0.35663   0.35737   0.37983   0.38222   0.38823
 Alpha virt. eigenvalues --    0.40672   0.42206   0.45299   0.46811   0.46884
 Alpha virt. eigenvalues --    0.46928   0.47991   0.48167   0.48389   0.49463
 Alpha virt. eigenvalues --    0.50277   0.50884   0.50925   0.51596   0.52417
 Alpha virt. eigenvalues --    0.52478   0.53447   0.53495   0.53520   0.53609
 Alpha virt. eigenvalues --    0.53854   0.54374   0.54656   0.55239   0.55442
 Alpha virt. eigenvalues --    0.55513   0.55589   0.55742   0.55820   0.56735
 Alpha virt. eigenvalues --    0.57256   0.57362   0.57684   0.57835   0.58012
 Alpha virt. eigenvalues --    0.58241   0.58327   0.58783   0.58787   0.58953
 Alpha virt. eigenvalues --    0.59102   0.59563   0.59808   0.60148   0.60647
 Alpha virt. eigenvalues --    0.60837   0.60851   0.60944   0.61367   0.61585
 Alpha virt. eigenvalues --    0.61602   0.61956   0.62129   0.62440   0.62463
 Alpha virt. eigenvalues --    0.62989   0.63125   0.63157   0.63858   0.64775
 Alpha virt. eigenvalues --    0.65529   0.65769   0.67053   0.67656   0.67990
 Alpha virt. eigenvalues --    0.68285   0.68868   0.71124   0.71200   0.71347
 Alpha virt. eigenvalues --    0.71453   0.71778   0.72428   0.74281   0.75206
 Alpha virt. eigenvalues --    0.75891   0.77582   0.78433   0.78451   0.79741
 Alpha virt. eigenvalues --    0.80605   0.81391   0.81774   0.82814   0.83324
 Alpha virt. eigenvalues --    0.83715   0.84122   0.84571   0.85450   0.85574
 Alpha virt. eigenvalues --    0.85715   0.86538   0.87064   0.87768   0.89301
 Alpha virt. eigenvalues --    0.90024   0.90258   0.90321   0.90670   0.90999
 Alpha virt. eigenvalues --    0.91059   0.93007   0.93513   0.93936   0.94064
 Alpha virt. eigenvalues --    0.95045   0.95140   0.95359   0.95773   0.95913
 Alpha virt. eigenvalues --    0.96229   0.96357   0.97755   0.98432   0.98588
 Alpha virt. eigenvalues --    0.99665   0.99734   1.00718   1.00922   1.01837
 Alpha virt. eigenvalues --    1.03294   1.04086   1.05789   1.05998   1.07680
 Alpha virt. eigenvalues --    1.07712   1.08714   1.09064   1.10053   1.12204
 Alpha virt. eigenvalues --    1.13440   1.13809   1.14944   1.17451   1.17552
 Alpha virt. eigenvalues --    1.17714   1.18832   1.20352   1.20878   1.21279
 Alpha virt. eigenvalues --    1.21934   1.22438   1.22476   1.22487   1.22874
 Alpha virt. eigenvalues --    1.24618   1.24890   1.25020   1.26252   1.26551
 Alpha virt. eigenvalues --    1.27657   1.27986   1.28471   1.29223   1.29583
 Alpha virt. eigenvalues --    1.29869   1.30466   1.31439   1.33164   1.34691
 Alpha virt. eigenvalues --    1.36308   1.36866   1.38886   1.38914   1.40731
 Alpha virt. eigenvalues --    1.41145   1.42771   1.43453   1.44734   1.44761
 Alpha virt. eigenvalues --    1.46715   1.46877   1.46901   1.46972   1.47126
 Alpha virt. eigenvalues --    1.47384   1.47439   1.47797   1.47883   1.47982
 Alpha virt. eigenvalues --    1.48117   1.48337   1.48923   1.49616   1.49628
 Alpha virt. eigenvalues --    1.50684   1.51851   1.53082   1.53268   1.55592
 Alpha virt. eigenvalues --    1.55938   1.56303   1.57634   1.58431   1.60992
 Alpha virt. eigenvalues --    1.64596   1.68993   1.69663   1.70215   1.70903
 Alpha virt. eigenvalues --    1.72153   1.72675   1.73813   1.74201   1.74328
 Alpha virt. eigenvalues --    1.75683   1.75828   1.77289   1.77868   1.78890
 Alpha virt. eigenvalues --    1.79011   1.79545   1.80443   1.81736   1.81830
 Alpha virt. eigenvalues --    1.81903   1.82346   1.82847   1.83958   1.86270
 Alpha virt. eigenvalues --    1.86425   1.87518   1.88523   1.89647   1.90105
 Alpha virt. eigenvalues --    1.91551   1.92349   1.92689   1.92872   1.92937
 Alpha virt. eigenvalues --    1.93379   1.94039   1.94190   1.94339   1.95597
 Alpha virt. eigenvalues --    1.96193   1.96476   1.96814   1.98393   1.99140
 Alpha virt. eigenvalues --    1.99686   1.99854   2.00433   2.00455   2.03431
 Alpha virt. eigenvalues --    2.03735   2.03887   2.04250   2.04526   2.06275
 Alpha virt. eigenvalues --    2.07371   2.08220   2.08316   2.09158   2.10412
 Alpha virt. eigenvalues --    2.11953   2.12080   2.12620   2.13821   2.13872
 Alpha virt. eigenvalues --    2.16572   2.17924   2.18120   2.20608   2.21889
 Alpha virt. eigenvalues --    2.22251   2.23360   2.23371   2.24521   2.24612
 Alpha virt. eigenvalues --    2.24859   2.24966   2.25987   2.26463   2.27063
 Alpha virt. eigenvalues --    2.27114   2.27664   2.28672   2.29540   2.30900
 Alpha virt. eigenvalues --    2.31482   2.32057   2.32352   2.33747   2.33774
 Alpha virt. eigenvalues --    2.34287   2.35910   2.35998   2.38390   2.38603
 Alpha virt. eigenvalues --    2.39618   2.40090   2.40101   2.40377   2.40998
 Alpha virt. eigenvalues --    2.41535   2.42084   2.43099   2.46393   2.48202
 Alpha virt. eigenvalues --    2.50249   2.51032   2.51685   2.52081   2.55235
 Alpha virt. eigenvalues --    2.55455   2.57538   2.58360   2.62739   2.63326
 Alpha virt. eigenvalues --    2.63687   2.64459   2.64491   2.65190   2.66558
 Alpha virt. eigenvalues --    2.67544   2.69706   2.70390   2.71562   2.72619
 Alpha virt. eigenvalues --    2.73062   2.73692   2.73997   2.74860   2.76832
 Alpha virt. eigenvalues --    2.77676   2.79404   2.80565   2.80672   2.82053
 Alpha virt. eigenvalues --    2.82462   2.84227   2.84943   2.85421   2.88676
 Alpha virt. eigenvalues --    2.89222   2.89378   2.91396   2.92087   2.93871
 Alpha virt. eigenvalues --    2.94536   2.95471   2.95741   2.98062   2.99694
 Alpha virt. eigenvalues --    3.00701   3.01972   3.04527   3.05050   3.14663
 Alpha virt. eigenvalues --    3.18125   3.19123   3.22059   3.25360   3.25977
 Alpha virt. eigenvalues --    3.32237   3.34384   3.40811   3.45724   3.53889
 Alpha virt. eigenvalues --    3.56591   3.63914   3.63935   4.08033   4.08675
 Alpha virt. eigenvalues --    4.09405   4.09864   4.10065   4.10491   4.10587
 Alpha virt. eigenvalues --    4.12087   4.12230   4.13007   4.14143   4.14252
 Alpha virt. eigenvalues --    4.14424   4.14591   4.16196   4.16248   4.17912
 Alpha virt. eigenvalues --    4.20881   4.23711   4.27885   4.31931   4.34521
 Alpha virt. eigenvalues --    4.34948   4.34989   4.35611   4.36017   4.42734
 Alpha virt. eigenvalues --    4.43627   4.51477   4.53217   4.59174   4.65159
 Alpha virt. eigenvalues --    4.66777   4.81647   4.95021   5.03940
          Condensed to atoms (all electrons):
 Mulliken charges:
               1
     1  C    0.023959
     2  C    0.071674
     3  C    0.071275
     4  C    0.070464
     5  C    0.049382
     6  C    0.070277
     7  C   -0.221047
     8  C   -0.210582
     9  C   -0.221612
    10  C   -0.211014
    11  C   -0.033637
    12  C    0.185506
    13  C    0.185754
    14  C   -0.223106
    15  C   -0.223058
    16  C   -0.120429
    17  C   -0.221732
    18  H    0.129602
    19  C   -0.221730
    20  H    0.129643
    21  C   -0.120876
    22  C   -0.223033
    23  C   -0.222590
    24  C    0.185975
    25  C    0.185129
    26  C   -0.033483
    27  C    0.048992
    28  C    0.071073
    29  C    0.071076
    30  C    0.070762
    31  C    0.071275
    32  C    0.024372
    33  H    0.129632
    34  H    0.129715
    35  C   -0.222016
    36  C   -0.221839
    37  C   -0.210813
    38  C   -0.210846
    39  C   -0.221652
    40  C   -0.221999
    41  H    0.134030
    42  H    0.130698
    43  H    0.132860
    44  H    0.132892
    45  H    0.130735
    46  H    0.134026
    47  H    0.130760
    48  H    0.134014
    49  H    0.132933
    50  H    0.132846
    51  H    0.133968
    52  H    0.130752
    53  H    0.125556
    54  H    0.125490
 Sum of Mulliken charges =  -0.00000
 Mulliken charges with hydrogens summed into heavy atoms:
               1
     1  C    0.023959
     2  C    0.071674
     3  C    0.071275
     4  C    0.070464
     5  C    0.049382
     6  C    0.070277
     7  C   -0.088155
     8  C   -0.076615
     9  C   -0.088766
    10  C   -0.076984
    11  C   -0.033637
    12  C    0.185506
    13  C    0.185754
    14  C   -0.093504
    15  C   -0.093415
    16  C    0.005127
    17  C   -0.091035
    19  C   -0.090978
    21  C    0.004614
    22  C   -0.093401
    23  C   -0.092876
    24  C    0.185975
    25  C    0.185129
    26  C   -0.033483
    27  C    0.048992
    28  C    0.071073
    29  C    0.071076
    30  C    0.070762
    31  C    0.071275
    32  C    0.024372
    35  C   -0.091281
    36  C   -0.091080
    37  C   -0.076800
    38  C   -0.076820
    39  C   -0.088720
    40  C   -0.089138
 Electronic spatial extent (au):  <R**2>=          20565.4004
 Charge=              0.0000 electrons
 Dipole moment (field-independent basis, Debye):
    X=             -0.0034    Y=             -0.0004    Z=             -0.0008  Tot=              0.0035
 Quadrupole moment (field-independent basis, Debye-Ang):
   XX=           -171.0990   YY=           -173.5768   ZZ=           -211.5247
   XY=             -0.0044   XZ=             -0.0163   YZ=             -0.0028
 Traceless Quadrupole moment (field-independent basis, Debye-Ang):
   XX=             14.3012   YY=             11.8234   ZZ=            -26.1245
   XY=             -0.0044   XZ=             -0.0163   YZ=             -0.0028
 Octapole moment (field-independent basis, Debye-Ang**2):
  XXX=             -0.2243  YYY=              0.0082  ZZZ=             -0.0018  XYY=             -0.0211
  XXY=             -0.0184  XXZ=             -0.0508  XZZ=             -0.0026  YZZ=             -0.0014
  YYZ=              0.0022  XYZ=              0.0174
 Hexadecapole moment (field-independent basis, Debye-Ang**3):
 XXXX=         -21981.3518 YYYY=          -3377.4672 ZZZZ=           -219.2595 XXXY=              0.4786
 XXXZ=             -1.6649 YYYX=             -0.1083 YYYZ=             -0.0353 ZZZX=             -0.0022
 ZZZY=             -0.0033 XXYY=          -4232.4600 XXZZ=          -4522.5452 YYZZ=           -724.0059
 XXYZ=             -0.0553 YYXZ=             -0.0321 ZZXY=             -0.0391
 N-N= 3.296422243634D+03 E-N=-9.795736471514D+03  KE= 1.370516946983D+03
 Calling FoFJK, ICntrl=      2127 FMM=F ISym2X=0 I1Cent= 0 IOpClX= 0 NMat=1 NMatS=1 NMatT=0.
 ***** Axes restored to original set *****
 -------------------------------------------------------------------
 Center     Atomic                   Forces (Hartrees/Bohr)
 Number     Number              X              Y              Z
 -------------------------------------------------------------------
      1        6           0.004539725   -0.000818214   -0.000075245
      2        6          -0.008048080    0.000307889    0.000260396
      3        6          -0.007811269    0.003278099    0.000070726
      4        6           0.005882248    0.001721921   -0.000148212
      5        6          -0.004781500    0.001542424   -0.000006455
      6        6           0.004488103   -0.004872250    0.000040015
      7        6           0.025915356   -0.012140370   -0.000552224
      8        6          -0.030077772    0.011618188    0.000667384
      9        6           0.028964135   -0.000876125   -0.000614571
     10        6          -0.032447001    0.002694114    0.000614737
     11        6           0.007512657   -0.002198530   -0.000037098
     12        6          -0.023835940    0.001679071    0.000379866
     13        6          -0.021228124    0.008996640    0.000440126
     14        6          -0.009147947   -0.008655253    0.000146712
     15        6          -0.004257844    0.012000533    0.000210773
     16        6           0.041430075   -0.009691280   -0.000855573
     17        6           0.036965807   -0.027566722   -0.000925791
     18        1           0.002514691    0.002481335   -0.000012208
     19        6           0.045426167    0.008236550   -0.000883917
     20        1           0.000968293   -0.003491754   -0.000054572
     21        6          -0.041628104    0.009285772    0.000902514
     22        6           0.009986099    0.009709931   -0.000303763
     23        6           0.004116461   -0.012788452   -0.000175771
     24        6           0.022860652   -0.001518223   -0.000440213
     25        6           0.021018945   -0.008677906   -0.000371478
     26        6          -0.007286769    0.002155884    0.000217001
     27        6           0.004926150   -0.001640637   -0.000211586
     28        6          -0.004402392    0.004631907    0.000221811
     29        6          -0.005847492   -0.001884034    0.000047512
     30        6           0.007715659   -0.002866116   -0.000175456
     31        6           0.008103712   -0.000905763    0.000031475
     32        6          -0.004686892    0.001424487   -0.000022705
     33        1          -0.002298642   -0.003077577    0.000062773
     34        1          -0.000711492    0.003916440   -0.000001661
     35        6          -0.046197138   -0.008062803    0.000933039
     36        6          -0.036790320    0.028037032    0.000855993
     37        6           0.032278473   -0.002564856   -0.000707450
     38        6           0.030896381   -0.011899387   -0.000677669
     39        6          -0.025789123    0.012823437    0.000573441
     40        6          -0.028728560   -0.000141576    0.000506086
     41        1           0.009236015   -0.004747926   -0.000191022
     42        1          -0.002123344   -0.000328661    0.000077102
     43        1           0.008246357   -0.004251829   -0.000181599
     44        1          -0.009459147   -0.000525896    0.000201512
     45        1           0.001779281   -0.001384250   -0.000054912
     46        1          -0.010574951   -0.000417709    0.000210614
     47        1           0.001832764   -0.000091427   -0.000048654
     48        1          -0.009097702    0.004614373    0.000206794
     49        1           0.009195583    0.000028325   -0.000182884
     50        1          -0.008313248    0.004937809    0.000186647
     51        1           0.010567828    0.000593611   -0.000215149
     52        1          -0.001805379    0.001380611    0.000063637
     53        1          -0.042642385    0.010091651    0.000844187
     54        1           0.042650940   -0.010102506   -0.000845030
 -------------------------------------------------------------------
 Cartesian Forces:  Max     0.046197138 RMS     0.013143922

 GradGradGradGradGradGradGradGradGradGradGradGradGradGradGradGradGradGrad
 Berny optimization.
 FormGI is forming the generalized inverse of G from B-inverse, IUseBI=4.
 Internal  Forces:  Max     0.043839196 RMS     0.006204801
 Search for a local minimum.
 Step number   1 out of a maximum of  324
 All quantities printed in internal units (Hartrees-Bohrs-Radians)
 Mixed Optimization -- RFO/linear search
 Second derivative matrix not updated -- first step.
 ITU=  0
     Eigenvalues ---    0.01724   0.01732   0.01735   0.01782   0.01795
     Eigenvalues ---    0.01796   0.01796   0.01805   0.01808   0.01809
     Eigenvalues ---    0.01816   0.01829   0.01842   0.01855   0.01865
     Eigenvalues ---    0.01872   0.01903   0.01922   0.01923   0.01962
     Eigenvalues ---    0.01962   0.01986   0.01988   0.01991   0.01993
     Eigenvalues ---    0.02063   0.02064   0.02073   0.02075   0.02089
     Eigenvalues ---    0.02092   0.02100   0.02100   0.02101   0.02103
     Eigenvalues ---    0.02110   0.02121   0.02123   0.02125   0.02126
     Eigenvalues ---    0.02127   0.02142   0.02145   0.02158   0.02163
     Eigenvalues ---    0.02187   0.02190   0.02211   0.02213   0.02213
     Eigenvalues ---    0.02217   0.16000   0.16000   0.16000   0.16000
     Eigenvalues ---    0.16000   0.16000   0.16000   0.16000   0.16000
     Eigenvalues ---    0.16000   0.16000   0.16000   0.16000   0.16000
     Eigenvalues ---    0.16000   0.16000   0.16000   0.16000   0.22133
     Eigenvalues ---    0.22134   0.22426   0.22443   0.22474   0.22654
     Eigenvalues ---    0.22694   0.22702   0.23540   0.23541   0.24486
     Eigenvalues ---    0.24537   0.24542   0.24549   0.24567   0.24574
     Eigenvalues ---    0.24956   0.24960   0.25000   0.25000   0.25000
     Eigenvalues ---    0.25000   0.25000   0.25000   0.31068   0.32789
     Eigenvalues ---    0.34394   0.35421   0.35459   0.35498   0.35507
     Eigenvalues ---    0.35533   0.35533   0.35571   0.35584   0.35678
     Eigenvalues ---    0.36522   0.36538   0.36583   0.36607   0.36619
     Eigenvalues ---    0.36659   0.36670   0.36693   0.36983   0.36993
     Eigenvalues ---    0.37819   0.38351   0.39376   0.39625   0.40077
     Eigenvalues ---    0.40514   0.41216   0.41284   0.41333   0.41349
     Eigenvalues ---    0.41484   0.41493   0.41569   0.41669   0.41687
     Eigenvalues ---    0.42075   0.42152   0.42478   0.42478   0.43522
     Eigenvalues ---    0.43691   0.43695   0.43714   0.43886   0.43936
     Eigenvalues ---    0.44991   0.45089   0.45329   0.45382   0.45638
     Eigenvalues ---    0.45679   0.45715   0.45761   0.46298   0.46341
     Eigenvalues ---    0.46774   0.46799   0.46828   0.46875   0.47541
     Eigenvalues ---    0.47651
 RFO step:  Lambda=-3.27298956D-02 EMin= 1.72403212D-02
 Linear search not attempted -- first point.
 Iteration  1 RMS(Cart)=  0.02430993 RMS(Int)=  0.00035012
 Iteration  2 RMS(Cart)=  0.00038185 RMS(Int)=  0.00003437
 Iteration  3 RMS(Cart)=  0.00000013 RMS(Int)=  0.00003437
 Variable       Old X    -DE/DX   Delta X   Delta X   Delta X     New X
                                 (Linear)    (Quad)   (Total)
    R1        2.68966   0.00659   0.00000   0.01422   0.01420   2.70387
    R2        2.68835   0.00703   0.00000   0.01519   0.01517   2.70352
    R3        2.72098   0.00097   0.00000   0.00275   0.00276   2.72374
    R4        2.69753   0.00385   0.00000   0.00861   0.00861   2.70613
    R5        2.65797   0.01228   0.00000   0.02554   0.02554   2.68351
    R6        2.69812   0.00365   0.00000   0.00820   0.00820   2.70632
    R7        2.65822   0.01219   0.00000   0.02536   0.02536   2.68357
    R8        2.68375   0.00926   0.00000   0.01982   0.01981   2.70357
    R9        2.68464   0.00612   0.00000   0.01084   0.01075   2.69538
   R10        2.68264   0.00949   0.00000   0.02036   0.02036   2.70300
   R11        2.69386   0.00334   0.00000   0.01093   0.01107   2.70493
   R12        2.68484   0.00601   0.00000   0.01064   0.01055   2.69539
   R13        2.61190  -0.00987   0.00000  -0.01919  -0.01919   2.59270
   R14        2.03124   0.00625   0.00000   0.01567   0.01567   2.04691
   R15        2.62744  -0.01678   0.00000  -0.03475  -0.03481   2.59262
   R16        2.03011   0.00690   0.00000   0.01726   0.01726   2.04737
   R17        2.61233  -0.01004   0.00000  -0.01953  -0.01953   2.59280
   R18        2.03063   0.00650   0.00000   0.01627   0.01627   2.04690
   R19        2.62813  -0.01710   0.00000  -0.03543  -0.03550   2.59263
   R20        2.03143   0.00639   0.00000   0.01603   0.01603   2.04746
   R21        2.66658   0.01168   0.00000   0.02915   0.02928   2.69586
   R22        2.66787   0.01123   0.00000   0.02823   0.02836   2.69623
   R23        2.65328   0.00565   0.00000   0.01169   0.01169   2.66498
   R24        2.62711   0.03137   0.00000   0.06280   0.06282   2.68992
   R25        2.65244   0.00592   0.00000   0.01224   0.01224   2.66469
   R26        2.62772   0.03110   0.00000   0.06229   0.06230   2.69002
   R27        2.63512   0.00128   0.00000   0.00078   0.00074   2.63586
   R28        2.04936   0.00160   0.00000   0.00413   0.00413   2.05349
   R29        2.63498   0.00145   0.00000   0.00113   0.00108   2.63606
   R30        2.04874   0.00182   0.00000   0.00470   0.00470   2.05344
   R31        1.95019   0.04383   0.00000   0.09580   0.09580   2.04599
   R32        2.04859   0.00169   0.00000   0.00435   0.00435   2.05294
   R33        2.04817   0.00183   0.00000   0.00472   0.00472   2.05290
   R34        2.63652   0.00074   0.00000  -0.00033  -0.00037   2.63615
   R35        2.63498   0.00142   0.00000   0.00104   0.00099   2.63597
   R36        1.95019   0.04384   0.00000   0.09582   0.09582   2.04601
   R37        2.65144   0.00640   0.00000   0.01323   0.01323   2.66467
   R38        2.04758   0.00223   0.00000   0.00574   0.00574   2.05332
   R39        2.65200   0.00619   0.00000   0.01278   0.01278   2.66478
   R40        2.04736   0.00230   0.00000   0.00593   0.00593   2.05329
   R41        2.66712   0.01151   0.00000   0.02887   0.02900   2.69613
   R42        2.62711   0.03141   0.00000   0.06287   0.06288   2.68999
   R43        2.66787   0.01116   0.00000   0.02810   0.02823   2.69610
   R44        2.62773   0.03111   0.00000   0.06231   0.06233   2.69006
   R45        2.69390   0.00322   0.00000   0.01072   0.01086   2.70476
   R46        2.68262   0.00960   0.00000   0.02057   0.02057   2.70319
   R47        2.68375   0.00926   0.00000   0.01983   0.01983   2.70359
   R48        2.69773   0.00383   0.00000   0.00858   0.00858   2.70631
   R49        2.68482   0.00602   0.00000   0.01066   0.01058   2.69540
   R50        2.69749   0.00388   0.00000   0.00869   0.00869   2.70618
   R51        2.68464   0.00603   0.00000   0.01063   0.01054   2.69517
   R52        2.68835   0.00706   0.00000   0.01532   0.01530   2.70365
   R53        2.65822   0.01210   0.00000   0.02522   0.02522   2.68343
   R54        2.68788   0.00725   0.00000   0.01571   0.01570   2.70357
   R55        2.65799   0.01227   0.00000   0.02555   0.02555   2.68354
   R56        2.62928  -0.01758   0.00000  -0.03649  -0.03656   2.59272
   R57        2.04817   0.00183   0.00000   0.00471   0.00471   2.05289
   R58        2.62813  -0.01713   0.00000  -0.03549  -0.03556   2.59257
   R59        2.04997   0.00118   0.00000   0.00305   0.00305   2.05302
   R60        2.03179   0.00624   0.00000   0.01566   0.01566   2.04745
   R61        2.03047   0.00675   0.00000   0.01690   0.01690   2.04737
   R62        2.03273   0.00569   0.00000   0.01430   0.01430   2.04704
   R63        2.03248   0.00581   0.00000   0.01459   0.01459   2.04707
    A1        2.08893   0.00114   0.00000   0.00240   0.00238   2.09130
    A2        2.09730  -0.00061   0.00000  -0.00136  -0.00134   2.09596
    A3        2.09695  -0.00053   0.00000  -0.00104  -0.00103   2.09592
    A4        2.10008  -0.00028   0.00000  -0.00154  -0.00154   2.09853
    A5        2.05807   0.00008   0.00000   0.00025   0.00025   2.05832
    A6        2.12504   0.00020   0.00000   0.00129   0.00130   2.12633
    A7        2.09927  -0.00012   0.00000  -0.00089  -0.00089   2.09838
    A8        2.05844   0.00004   0.00000   0.00008   0.00007   2.05851
    A9        2.12547   0.00007   0.00000   0.00081   0.00082   2.12629
   A10        2.08515   0.00010   0.00000   0.00277   0.00283   2.08798
   A11        2.13766  -0.00254   0.00000  -0.00756  -0.00754   2.13011
   A12        2.06037   0.00245   0.00000   0.00479   0.00472   2.06509
   A13        2.10671  -0.00071   0.00000  -0.00472  -0.00479   2.10193
   A14        2.08772   0.00048   0.00000   0.00271   0.00275   2.09046
   A15        2.08875   0.00023   0.00000   0.00201   0.00204   2.09079
   A16        2.08622  -0.00013   0.00000   0.00197   0.00203   2.08825
   A17        2.13707  -0.00239   0.00000  -0.00712  -0.00710   2.12997
   A18        2.05989   0.00252   0.00000   0.00514   0.00507   2.06496
   A19        2.12725   0.00062   0.00000   0.00140   0.00139   2.12864
   A20        2.15180  -0.00754   0.00000  -0.03823  -0.03823   2.11357
   A21        2.00414   0.00692   0.00000   0.03683   0.03684   2.04098
   A22        2.12482   0.00152   0.00000   0.00076   0.00065   2.12548
   A23        2.15607  -0.00891   0.00000  -0.04268  -0.04263   2.11344
   A24        2.00230   0.00739   0.00000   0.04192   0.04198   2.04427
   A25        2.12765   0.00058   0.00000   0.00122   0.00121   2.12886
   A26        2.15200  -0.00756   0.00000  -0.03835  -0.03835   2.11365
   A27        2.00354   0.00699   0.00000   0.03713   0.03714   2.04068
   A28        2.12492   0.00149   0.00000   0.00067   0.00057   2.12549
   A29        2.15748  -0.00906   0.00000  -0.04348  -0.04343   2.11405
   A30        2.00079   0.00757   0.00000   0.04281   0.04286   2.04365
   A31        2.10311  -0.00094   0.00000  -0.00316  -0.00313   2.09997
   A32        2.10304  -0.00092   0.00000  -0.00315  -0.00312   2.09992
   A33        2.07704   0.00186   0.00000   0.00631   0.00625   2.08329
   A34        2.09721  -0.00435   0.00000  -0.01363  -0.01361   2.08360
   A35        2.08705  -0.00661   0.00000  -0.01836  -0.01825   2.06880
   A36        2.09893   0.01095   0.00000   0.03199   0.03186   2.13079
   A37        2.09788  -0.00452   0.00000  -0.01418  -0.01415   2.08373
   A38        2.08603  -0.00638   0.00000  -0.01769  -0.01759   2.06844
   A39        2.09928   0.01090   0.00000   0.03187   0.03174   2.13102
   A40        2.09902   0.00296   0.00000   0.01085   0.01087   2.10989
   A41        2.10640  -0.00471   0.00000  -0.02217  -0.02218   2.08421
   A42        2.07776   0.00175   0.00000   0.01133   0.01132   2.08908
   A43        2.09847   0.00307   0.00000   0.01128   0.01130   2.10976
   A44        2.10653  -0.00474   0.00000  -0.02229  -0.02230   2.08423
   A45        2.07819   0.00167   0.00000   0.01101   0.01100   2.08919
   A46        2.09675   0.00096   0.00000  -0.00063  -0.00065   2.09610
   A47        2.09322  -0.00049   0.00000   0.00026   0.00027   2.09349
   A48        2.09321  -0.00047   0.00000   0.00037   0.00038   2.09360
   A49        2.10374   0.00307   0.00000   0.01302   0.01302   2.11676
   A50        2.07791  -0.00017   0.00000   0.00057   0.00057   2.07848
   A51        2.10153  -0.00290   0.00000  -0.01359  -0.01359   2.08794
   A52        2.10330   0.00310   0.00000   0.01326   0.01326   2.11656
   A53        2.07809  -0.00017   0.00000   0.00052   0.00052   2.07860
   A54        2.10179  -0.00293   0.00000  -0.01377  -0.01377   2.08802
   A55        2.09723   0.00088   0.00000  -0.00104  -0.00106   2.09617
   A56        2.09298  -0.00047   0.00000   0.00037   0.00038   2.09336
   A57        2.09298  -0.00041   0.00000   0.00067   0.00068   2.09366
   A58        2.09838   0.00308   0.00000   0.01132   0.01134   2.10972
   A59        2.07795   0.00166   0.00000   0.01095   0.01095   2.08889
   A60        2.10685  -0.00474   0.00000  -0.02228  -0.02228   2.08457
   A61        2.09777   0.00324   0.00000   0.01187   0.01189   2.10967
   A62        2.07756   0.00170   0.00000   0.01130   0.01129   2.08885
   A63        2.10785  -0.00494   0.00000  -0.02318  -0.02318   2.08467
   A64        2.09803  -0.00452   0.00000  -0.01418  -0.01415   2.08388
   A65        2.09877   0.01102   0.00000   0.03220   0.03206   2.13083
   A66        2.08638  -0.00651   0.00000  -0.01802  -0.01791   2.06847
   A67        2.09857  -0.00466   0.00000  -0.01466  -0.01464   2.08393
   A68        2.09860   0.01105   0.00000   0.03240   0.03226   2.13086
   A69        2.08602  -0.00640   0.00000  -0.01773  -0.01763   2.06839
   A70        2.07638   0.00197   0.00000   0.00669   0.00662   2.08300
   A71        2.10377  -0.00108   0.00000  -0.00360  -0.00356   2.10021
   A72        2.10304  -0.00089   0.00000  -0.00309  -0.00306   2.09998
   A73        2.08874   0.00024   0.00000   0.00205   0.00209   2.09083
   A74        2.08772   0.00042   0.00000   0.00261   0.00264   2.09036
   A75        2.10673  -0.00066   0.00000  -0.00466  -0.00473   2.10200
   A76        2.08553   0.00002   0.00000   0.00248   0.00253   2.08806
   A77        2.05992   0.00247   0.00000   0.00504   0.00497   2.06488
   A78        2.13774  -0.00249   0.00000  -0.00751  -0.00750   2.13024
   A79        2.08515   0.00007   0.00000   0.00269   0.00274   2.08789
   A80        2.06037   0.00247   0.00000   0.00488   0.00482   2.06519
   A81        2.13766  -0.00254   0.00000  -0.00757  -0.00755   2.13010
   A82        2.09995  -0.00027   0.00000  -0.00143  -0.00143   2.09852
   A83        2.12479   0.00029   0.00000   0.00145   0.00146   2.12626
   A84        2.05844  -0.00002   0.00000  -0.00003  -0.00003   2.05841
   A85        2.10030  -0.00031   0.00000  -0.00161  -0.00162   2.09868
   A86        2.12505   0.00020   0.00000   0.00115   0.00116   2.12621
   A87        2.05784   0.00012   0.00000   0.00046   0.00046   2.05830
   A88        2.09695  -0.00050   0.00000  -0.00100  -0.00099   2.09597
   A89        2.09752  -0.00066   0.00000  -0.00153  -0.00152   2.09600
   A90        2.08871   0.00116   0.00000   0.00253   0.00251   2.09122
   A91        2.10346   0.00312   0.00000   0.01325   0.01325   2.11671
   A92        2.10179  -0.00291   0.00000  -0.01363  -0.01363   2.08817
   A93        2.07793  -0.00021   0.00000   0.00038   0.00038   2.07831
   A94        2.10375   0.00309   0.00000   0.01308   0.01308   2.11683
   A95        2.10215  -0.00298   0.00000  -0.01402  -0.01402   2.08813
   A96        2.07728  -0.00010   0.00000   0.00094   0.00094   2.07822
   A97        2.12491   0.00148   0.00000   0.00065   0.00055   2.12546
   A98        2.15658  -0.00894   0.00000  -0.04287  -0.04281   2.11376
   A99        2.00170   0.00746   0.00000   0.04221   0.04226   2.04396
   A100       2.12466   0.00157   0.00000   0.00088   0.00077   2.12544
   A101       2.15737  -0.00906   0.00000  -0.04339  -0.04334   2.11404
   A102       2.00115   0.00749   0.00000   0.04251   0.04256   2.04371
   A103       2.12795   0.00048   0.00000   0.00092   0.00091   2.12886
   A104       2.00286   0.00710   0.00000   0.03764   0.03765   2.04051
   A105       2.15237  -0.00758   0.00000  -0.03856  -0.03855   2.11382
   A106       2.12837   0.00041   0.00000   0.00064   0.00063   2.12899
   A107       2.00265   0.00715   0.00000   0.03784   0.03784   2.04049
   A108       2.15217  -0.00756   0.00000  -0.03848  -0.03847   2.11370
    D1        0.00004  -0.00001   0.00000  -0.00011  -0.00011  -0.00007
    D2        3.14112   0.00001   0.00000   0.00015   0.00015   3.14128
    D3       -3.14138  -0.00000   0.00000  -0.00011  -0.00011  -3.14150
    D4       -0.00030   0.00001   0.00000   0.00015   0.00015  -0.00014
    D5        0.00078  -0.00001   0.00000  -0.00023  -0.00023   0.00055
    D6        3.14129   0.00001   0.00000   0.00014   0.00014   3.14143
    D7       -3.14098  -0.00001   0.00000  -0.00023  -0.00023  -3.14121
    D8       -0.00047   0.00001   0.00000   0.00013   0.00014  -0.00034
    D9       -0.00017   0.00000   0.00000   0.00004   0.00004  -0.00013
   D10       -3.14078  -0.00002   0.00000  -0.00035  -0.00035  -3.14112
   D11        3.14159   0.00000   0.00000   0.00004   0.00004  -3.14155
   D12        0.00099  -0.00002   0.00000  -0.00035  -0.00035   0.00064
[...]
     49          1           0       -1.190847   -3.401896    0.000021
     50          1           0        1.190790   -3.401911    0.000018
     51          1           0        3.120725   -3.408941    0.000103
     52          1           0        5.541780   -3.392816    0.000062
     53          1           0        8.923244   -0.000030   -0.000105
     54          1           0       -8.923242   -0.000066    0.000049
 ---------------------------------------------------------------------
 Rotational constants (GHZ):           0.3847535           0.0541063           0.0474357

 **********************************************************************

            Population analysis using the SCF Density.

 **********************************************************************

 Orbital symmetries:
       Occupied  (A) (A) (A) (A) (A) (A) (A) (A) (A) (A) (A) (A)
                 (A) (A) (A) (A) (A) (A) (A) (A) (A) (A) (A) (A)
                 (A) (A) (A) (A) (A) (A) (A) (A) (A) (A) (A) (A)
                 (A) (A) (A) (A) (A) (A) (A) (A) (A) (A) (A) (A)
                 (A) (A) (A) (A) (A) (A) (A) (A) (A) (A) (A) (A)
                 (A) (A) (A) (A) (A) (A) (A) (A) (A) (A) (A) (A)
                 (A) (A) (A) (A) (A) (A) (A) (A) (A) (A) (A) (A)
                 (A) (A) (A) (A) (A) (A) (A) (A) (A) (A) (A) (A)
                 (A) (A) (A) (A) (A) (A) (A) (A) (A) (A) (A) (A)
                 (A) (A) (A) (A) (A) (A) (A) (A) (A)
       Virtual   (A) (A) (A) (A) (A) (A) (A) (A) (A) (A) (A) (A)
                 (A) (A) (A) (A) (A) (A) (A) (A) (A) (A) (A) (A)
                 (A) (A) (A) (A) (A) (A) (A) (A) (A) (A) (A) (A)
                 (A) (A) (A) (A) (A) (A) (A) (A) (A) (A) (A) (A)
                 (A) (A) (A) (A) (A) (A) (A) (A) (A) (A) (A) (A)
                 (A) (A) (A) (A) (A) (A) (A) (A) (A) (A) (A) (A)
                 (A) (A) (A) (A) (A) (A) (A) (A) (A) (A) (A) (A)
                 (A) (A) (A) (A) (A) (A) (A) (A) (A) (A) (A) (A)
                 (A) (A) (A) (A) (A) (A) (A) (A) (A) (A) (A) (A)
                 (A) (A) (A) (A) (A) (A) (A) (A) (A) (A) (A) (A)
                 (A) (A) (A) (A) (A) (A) (A) (A) (A) (A) (A) (A)
                 (A) (A) (A) (A) (A) (A) (A) (A) (A) (A) (A) (A)
                 (A) (A) (A) (A) (A) (A) (A) (A) (A) (A) (A) (A)
                 (A) (A) (A) (A) (A) (A) (A) (A) (A) (A) (A) (A)
                 (A) (A) (A) (A) (A) (A) (A) (A) (A) (A) (A) (A)
                 (A) (A) (A) (A) (A) (A) (A) (A) (A) (A) (A) (A)
                 (A) (A) (A) (A) (A) (A) (A) (A) (A) (A) (A) (A)
                 (A) (A) (A) (A) (A) (A) (A) (A) (A) (A) (A) (A)
                 (A) (A) (A) (A) (A) (A) (A) (A) (A) (A) (A) (A)
                 (A) (A) (A) (A) (A) (A) (A) (A) (A) (A) (A) (A)
                 (A) (A) (A) (A) (A) (A) (A) (A) (A) (A) (A) (A)
                 (A) (A) (A) (A) (A) (A) (A) (A) (A) (A) (A) (A)
                 (A) (A) (A) (A) (A) (A) (A) (A) (A) (A) (A) (A)
                 (A) (A) (A) (A) (A) (A) (A) (A) (A) (A) (A) (A)
                 (A) (A) (A) (A) (A) (A) (A) (A) (A) (A) (A) (A)
                 (A) (A) (A) (A) (A) (A) (A) (A) (A) (A) (A) (A)
                 (A) (A) (A) (A) (A) (A) (A) (A) (A) (A) (A) (A)
                 (A) (A) (A) (A) (A) (A) (A) (A) (A) (A) (A) (A)
                 (A) (A) (A) (A) (A) (A) (A) (A) (A) (A) (A) (A)
                 (A) (A) (A) (A) (A) (A) (A) (A) (A) (A) (A) (A)
                 (A) (A) (A) (A) (A) (A) (A) (A) (A) (A) (A) (A)
                 (A) (A) (A) (A) (A) (A) (A) (A) (A) (A) (A) (A)
                 (A) (A) (A) (A) (A) (A) (A) (A) (A) (A) (A) (A)
                 (A) (A) (A) (A) (A) (A) (A) (A) (A) (A) (A) (A)
                 (A) (A) (A) (A) (A) (A) (A) (A) (A) (A) (A) (A)
                 (A) (A) (A) (A) (A) (A) (A) (A) (A) (A) (A) (A)
                 (A) (A) (A) (A) (A) (A) (A) (A) (A) (A) (A) (A)
                 (A) (A) (A) (A) (A) (A) (A) (A) (A) (A) (A) (A)
                 (A) (A) (A)
 The electronic state is 1-A.
 Alpha  occ. eigenvalues --  -10.20338 -10.20306 -10.20288 -10.20285 -10.20285
 Alpha  occ. eigenvalues --  -10.20285 -10.20223 -10.20222 -10.20217 -10.20214
 Alpha  occ. eigenvalues --  -10.20135 -10.20135 -10.19896 -10.19896 -10.19839
 Alpha  occ. eigenvalues --  -10.19839 -10.19822 -10.19822 -10.19265 -10.19265
 Alpha  occ. eigenvalues --  -10.19265 -10.19265 -10.19265 -10.19265 -10.19194
 Alpha  occ. eigenvalues --  -10.19193 -10.19193 -10.19193 -10.19178 -10.19178
 Alpha  occ. eigenvalues --  -10.19144 -10.19144 -10.19131 -10.19131 -10.19108
 Alpha  occ. eigenvalues --  -10.19108  -0.89994  -0.88988  -0.87312  -0.84662
 Alpha  occ. eigenvalues --   -0.84211  -0.83086  -0.82146  -0.81512  -0.78881
 Alpha  occ. eigenvalues --   -0.77365  -0.76229  -0.74936  -0.74733  -0.74545
 Alpha  occ. eigenvalues --   -0.73937  -0.71846  -0.71786  -0.68955  -0.64482
 Alpha  occ. eigenvalues --   -0.64233  -0.64133  -0.62805  -0.61902  -0.61462
 Alpha  occ. eigenvalues --   -0.60798  -0.60522  -0.58494  -0.55862  -0.54325
 Alpha  occ. eigenvalues --   -0.53607  -0.52208  -0.51531  -0.51405  -0.50497
 Alpha  occ. eigenvalues --   -0.49877  -0.49360  -0.48927  -0.48538  -0.47099
 Alpha  occ. eigenvalues --   -0.45868  -0.45697  -0.43818  -0.43231  -0.43058
 Alpha  occ. eigenvalues --   -0.42738  -0.42426  -0.42222  -0.42144  -0.40881
 Alpha  occ. eigenvalues --   -0.40879  -0.40868  -0.40167  -0.39643  -0.39161
 Alpha  occ. eigenvalues --   -0.38843  -0.38809  -0.38740  -0.38033  -0.37875
 Alpha  occ. eigenvalues --   -0.37251  -0.35788  -0.35588  -0.35574  -0.34421
 Alpha  occ. eigenvalues --   -0.34251  -0.33267  -0.32604  -0.32246  -0.32177
 Alpha  occ. eigenvalues --   -0.32175  -0.30517  -0.28795  -0.28145  -0.26045
 Alpha  occ. eigenvalues --   -0.25360  -0.25020  -0.24953  -0.24599  -0.21827
 Alpha  occ. eigenvalues --   -0.21046  -0.16905
 Alpha virt. eigenvalues --   -0.08464  -0.04366  -0.04128  -0.01730  -0.00686
 Alpha virt. eigenvalues --   -0.00392  -0.00301   0.01422   0.02950   0.04454
 Alpha virt. eigenvalues --    0.08163   0.08624   0.09395   0.09686   0.09755
 Alpha virt. eigenvalues --    0.10463   0.11212   0.11618   0.11683   0.13299
 Alpha virt. eigenvalues --    0.13690   0.14383   0.14548   0.14611   0.14644
 Alpha virt. eigenvalues --    0.16519   0.17679   0.17777   0.18358   0.20007
 Alpha virt. eigenvalues --    0.20148   0.21831   0.21995   0.22539   0.23104
 Alpha virt. eigenvalues --    0.23460   0.24135   0.24318   0.24343   0.24991
 Alpha virt. eigenvalues --    0.25795   0.26273   0.27312   0.27385   0.27792
 Alpha virt. eigenvalues --    0.27946   0.28239   0.29358   0.30226   0.30354
 Alpha virt. eigenvalues --    0.31443   0.32520   0.33895   0.34345   0.34347
 Alpha virt. eigenvalues --    0.34657   0.35337   0.36458   0.37135   0.38510
 Alpha virt. eigenvalues --    0.40475   0.42263   0.44223   0.45358   0.45384
 Alpha virt. eigenvalues --    0.46916   0.47196   0.47634   0.47725   0.49409
 Alpha virt. eigenvalues --    0.49619   0.50266   0.50340   0.51599   0.51942
 Alpha virt. eigenvalues --    0.52169   0.52655   0.53302   0.53443   0.53477
 Alpha virt. eigenvalues --    0.53597   0.54182   0.54274   0.54631   0.55178
 Alpha virt. eigenvalues --    0.55220   0.55480   0.55619   0.55634   0.56697
 Alpha virt. eigenvalues --    0.57237   0.57280   0.57442   0.57490   0.57786
 Alpha virt. eigenvalues --    0.57890   0.58106   0.58262   0.58316   0.58490
 Alpha virt. eigenvalues --    0.58749   0.59175   0.59484   0.59814   0.59894
 Alpha virt. eigenvalues --    0.60047   0.60425   0.60845   0.61105   0.61137
 Alpha virt. eigenvalues --    0.61396   0.61550   0.61617   0.61650   0.62184
 Alpha virt. eigenvalues --    0.62235   0.62570   0.63239   0.63729   0.64704
 Alpha virt. eigenvalues --    0.65072   0.65297   0.66715   0.66847   0.67168
 Alpha virt. eigenvalues --    0.68243   0.68695   0.70458   0.70872   0.70926
 Alpha virt. eigenvalues --    0.70978   0.71085   0.72185   0.74214   0.75043
 Alpha virt. eigenvalues --    0.75813   0.77239   0.78219   0.78691   0.80019
 Alpha virt. eigenvalues --    0.80261   0.81461   0.81756   0.82345   0.82949
 Alpha virt. eigenvalues --    0.83276   0.83443   0.84287   0.84859   0.85014
 Alpha virt. eigenvalues --    0.85478   0.86037   0.86686   0.87264   0.87936
 Alpha virt. eigenvalues --    0.87940   0.89731   0.90612   0.90630   0.90647
 Alpha virt. eigenvalues --    0.92214   0.92874   0.93711   0.93718   0.93803
 Alpha virt. eigenvalues --    0.93888   0.94635   0.95063   0.95125   0.95342
 Alpha virt. eigenvalues --    0.95490   0.95957   0.97018   0.97021   0.98067
 Alpha virt. eigenvalues --    0.99469   0.99521   1.00212   1.01280   1.01282
 Alpha virt. eigenvalues --    1.03764   1.04133   1.04520   1.05315   1.06885
 Alpha virt. eigenvalues --    1.06923   1.07899   1.08258   1.09973   1.11606
 Alpha virt. eigenvalues --    1.12258   1.13658   1.14934   1.16891   1.17483
 Alpha virt. eigenvalues --    1.17713   1.18264   1.20126   1.20621   1.20907
 Alpha virt. eigenvalues --    1.21209   1.21250   1.22282   1.22776   1.22930
 Alpha virt. eigenvalues --    1.24159   1.25041   1.25076   1.25380   1.26240
 Alpha virt. eigenvalues --    1.27352   1.27681   1.27737   1.28744   1.28807
 Alpha virt. eigenvalues --    1.29453   1.30254   1.31158   1.32088   1.34494
 Alpha virt. eigenvalues --    1.36276   1.36407   1.38912   1.38957   1.40455
 Alpha virt. eigenvalues --    1.41178   1.42490   1.42895   1.43916   1.44867
 Alpha virt. eigenvalues --    1.46064   1.46667   1.46673   1.46888   1.46914
 Alpha virt. eigenvalues --    1.47076   1.47281   1.47294   1.47529   1.47884
 Alpha virt. eigenvalues --    1.47916   1.48245   1.48636   1.49546   1.49551
 Alpha virt. eigenvalues --    1.49884   1.51348   1.52690   1.52975   1.55589
 Alpha virt. eigenvalues --    1.55628   1.55830   1.56484   1.57751   1.59479
 Alpha virt. eigenvalues --    1.63311   1.68173   1.68894   1.69417   1.70211
 Alpha virt. eigenvalues --    1.70668   1.72038   1.72210   1.73850   1.74004
 Alpha virt. eigenvalues --    1.74941   1.75159   1.75692   1.77377   1.78357
 Alpha virt. eigenvalues --    1.78629   1.79027   1.79035   1.80739   1.81002
 Alpha virt. eigenvalues --    1.81505   1.81601   1.81937   1.82980   1.85302
 Alpha virt. eigenvalues --    1.85327   1.86627   1.87419   1.87879   1.88929
 Alpha virt. eigenvalues --    1.90476   1.91327   1.91359   1.91465   1.91843
 Alpha virt. eigenvalues --    1.91977   1.93177   1.93231   1.93258   1.93313
 Alpha virt. eigenvalues --    1.93325   1.94191   1.94564   1.96119   1.96465
 Alpha virt. eigenvalues --    1.97688   1.98949   1.99121   1.99165   2.00484
 Alpha virt. eigenvalues --    2.02003   2.02174   2.03422   2.03623   2.04681
 Alpha virt. eigenvalues --    2.06185   2.07105   2.07287   2.07998   2.09302
 Alpha virt. eigenvalues --    2.11521   2.11583   2.12149   2.13566   2.13809
 Alpha virt. eigenvalues --    2.15038   2.16968   2.17175   2.19558   2.21269
 Alpha virt. eigenvalues --    2.22302   2.22942   2.23114   2.23807   2.24177
 Alpha virt. eigenvalues --    2.24268   2.24516   2.26232   2.26305   2.27004
 Alpha virt. eigenvalues --    2.27577   2.28117   2.28473   2.29100   2.29818
 Alpha virt. eigenvalues --    2.30110   2.30662   2.31464   2.31736   2.32677
 Alpha virt. eigenvalues --    2.32993   2.35292   2.35377   2.37245   2.37683
 Alpha virt. eigenvalues --    2.37831   2.37864   2.39748   2.39865   2.40492
 Alpha virt. eigenvalues --    2.40503   2.41041   2.43165   2.44938   2.48076
 Alpha virt. eigenvalues --    2.50079   2.50147   2.51283   2.51506   2.54364
 Alpha virt. eigenvalues --    2.54402   2.56950   2.58097   2.61367   2.61445
 Alpha virt. eigenvalues --    2.62947   2.63226   2.63895   2.63991   2.66303
 Alpha virt. eigenvalues --    2.67431   2.67733   2.68458   2.71201   2.71318
 Alpha virt. eigenvalues --    2.71904   2.71947   2.72471   2.73084   2.75995
 Alpha virt. eigenvalues --    2.77799   2.78798   2.79266   2.79953   2.80209
 Alpha virt. eigenvalues --    2.82012   2.83931   2.84112   2.84910   2.87214
 Alpha virt. eigenvalues --    2.88131   2.88600   2.90156   2.91635   2.92481
 Alpha virt. eigenvalues --    2.93248   2.94116   2.94558   2.97301   2.98335
 Alpha virt. eigenvalues --    2.99184   3.02419   3.04332   3.05968   3.13060
 Alpha virt. eigenvalues --    3.15812   3.19105   3.20624   3.22655   3.23077
 Alpha virt. eigenvalues --    3.29174   3.31206   3.37218   3.42884   3.49782
 Alpha virt. eigenvalues --    3.53764   3.60291   3.61416   4.06638   4.07402
 Alpha virt. eigenvalues --    4.08384   4.08760   4.08934   4.10007   4.10053
 Alpha virt. eigenvalues --    4.11435   4.11635   4.13370   4.13716   4.14025
 Alpha virt. eigenvalues --    4.14500   4.14739   4.16508   4.16820   4.18306
 Alpha virt. eigenvalues --    4.20570   4.23047   4.27624   4.31726   4.33888
 Alpha virt. eigenvalues --    4.34490   4.34558   4.35364   4.35546   4.42350
 Alpha virt. eigenvalues --    4.42990   4.50563   4.52684   4.58325   4.64310
 Alpha virt. eigenvalues --    4.65558   4.79566   4.92404   5.01433
          Condensed to atoms (all electrons):
 Mulliken charges:
               1
     1  C    0.016994
     2  C    0.058887
     3  C    0.058883
     4  C    0.047593
     5  C    0.049802
     6  C    0.047595
     7  C   -0.204398
     8  C   -0.184728
     9  C   -0.204404
    10  C   -0.184727
    11  C   -0.050135
    12  C    0.175374
    13  C    0.175373
    14  C   -0.224655
    15  C   -0.224656
    16  C   -0.123761
    17  C   -0.211240
    18  H    0.129856
    19  C   -0.211241
    20  H    0.129856
    21  C   -0.123759
    22  C   -0.224658
    23  C   -0.224658
    24  C    0.175373
    25  C    0.175380
    26  C   -0.050138
    27  C    0.049804
    28  C    0.047584
    29  C    0.047601
    30  C    0.058880
    31  C    0.058891
    32  C    0.016996
    33  H    0.129856
    34  H    0.129856
    35  C   -0.211235
    36  C   -0.211247
    37  C   -0.184720
    38  C   -0.184734
    39  C   -0.204392
    40  C   -0.204400
    41  H    0.135465
    42  H    0.130719
    43  H    0.134991
    44  H    0.134992
    45  H    0.130718
    46  H    0.135463
    47  H    0.130718
    48  H    0.135466
    49  H    0.134993
    50  H    0.134992
    51  H    0.135465
    52  H    0.130718
    53  H    0.131376
    54  H    0.131377
 Sum of Mulliken charges =  -0.00000
 Mulliken charges with hydrogens summed into heavy atoms:
               1
     1  C    0.016994
     2  C    0.058887
     3  C    0.058883
     4  C    0.047593
     5  C    0.049802
     6  C    0.047595
     7  C   -0.069406
     8  C   -0.049263
     9  C   -0.069413
    10  C   -0.049263
    11  C   -0.050135
    12  C    0.175374
    13  C    0.175373
    14  C   -0.094798
    15  C   -0.094800
    16  C    0.007616
    17  C   -0.080521
    19  C   -0.080523
    21  C    0.007617
    22  C   -0.094802
    23  C   -0.094802
    24  C    0.175373
    25  C    0.175380
    26  C   -0.050138
    27  C    0.049804
    28  C    0.047584
    29  C    0.047601
    30  C    0.058880
    31  C    0.058891
    32  C    0.016996
    35  C   -0.080517
    36  C   -0.080528
    37  C   -0.049254
    38  C   -0.049271
    39  C   -0.069399
    40  C   -0.069409
 Electronic spatial extent (au):  <R**2>=          20714.0678
 Charge=             -0.0000 electrons
 Dipole moment (field-independent basis, Debye):
    X=             -0.0000    Y=             -0.0000    Z=             -0.0000  Tot=              0.0000
 Quadrupole moment (field-independent basis, Debye-Ang):
   XX=           -171.8509   YY=           -174.2970   ZZ=           -212.1971
   XY=              0.0001   XZ=              0.0001   YZ=              0.0000
 Traceless Quadrupole moment (field-independent basis, Debye-Ang):
   XX=             14.2641   YY=             11.8180   ZZ=            -26.0821
   XY=              0.0001   XZ=              0.0001   YZ=              0.0000
 Octapole moment (field-independent basis, Debye-Ang**2):
  XXX=              0.0033  YYY=             -0.0001  ZZZ=              0.0000  XYY=             -0.0000
  XXY=              0.0003  XXZ=             -0.0019  XZZ=             -0.0001  YZZ=             -0.0001
  YYZ=              0.0001  XYZ=             -0.0008
 Hexadecapole moment (field-independent basis, Debye-Ang**3):
 XXXX=         -22169.2392 YYYY=          -3455.0113 ZZZZ=           -220.3008 XXXY=              0.0024
 XXXZ=             -0.0331 YYYX=             -0.0007 YYYZ=              0.0002 ZZZX=              0.0004
 ZZZY=              0.0000 XXYY=          -4282.8209 XXZZ=          -4569.8754 YYZZ=           -735.1408
 XXYZ=              0.0005 YYXZ=              0.0098 ZZXY=              0.0002
 N-N= 3.280437393397D+03 E-N=-9.762808432398D+03  KE= 1.369519376191D+03
 Unable to Open any file for archive entry.
 1\1\GINC-CDR1255\FOpt\RB3LYP\6-31G(d)\C36H18\LUSTRA\26-Jan-2022\0\\#n 
 B3LYP/6-31G(d) Opt\\teropyrene\\0,1\C,1.0070552774,-5.798116763,0.3675
 687384\C,0.5922262383,-4.4294953354,0.381483727\C,0.0237893675,-6.8365
 557023,0.3829633886\C,-0.7961857946,-4.0982698667,0.4105925981\C,-1.77
 21089324,-5.1417698027,0.4257977796\C,-1.3661108545,-6.5116392953,0.41
 20769186\C,0.4845758357,-8.1883329272,0.3682074447\C,-1.2610868916,-2.
 7405520041,0.425475674\C,1.609051516,-3.4266750664,0.3652763785\C,-2.3
 892834863,-7.5179235439,0.4284043009\C,-3.1676501619,-4.8121903376,0.4
 550214831\C,-3.5904084923,-3.4488685381,0.4690597523\C,-4.1556330402,-
 5.8423415577,0.4705262833\C,-4.9627662061,-3.1475895413,0.4976829699\C
 ,-5.5177783532,-5.4978219189,0.4991216066\C,-5.9155944447,-4.163217741
 4,0.5125237335\C,-3.7145729392,-7.2034282935,0.4561570798\H,-5.2730667
 282,-2.1056177313,0.5081514925\C,-2.5870508531,-2.4289067627,0.4532312
 915\H,-6.2614332362,-6.2908816953,0.5107105371\C,9.3347214429,-7.76470
 35819,0.1931114192\C,8.3819121815,-8.780350393,0.2079679656\C,8.936877
 665,-6.4301083458,0.2065102975\C,7.0095473334,-8.4791027815,0.23660945
 43\C,7.5747240592,-6.0856148873,0.2351265021\C,6.5867656272,-7.1157900
 694,0.2506479145\C,5.1912179888,-6.7862435223,0.2798891935\C,4.7852001
 47,-5.4163853254,0.2936206477\C,4.2153083983,-7.8297593265,0.295111805
 5\C,3.395307366,-5.0914844922,0.3227420441\C,2.8268878066,-7.498548897
 3,0.3242295294\C,2.4120503624,-6.1299283526,0.3381305556\H,8.692231383
 4,-9.8223162818,0.1975002781\H,9.6805094931,-5.6370277874,0.1948999427
 \C,6.0062143749,-9.4990849509,0.2524530521\C,7.1336341214,-4.724537212
 3,0.2494950235\C,5.8083370569,-4.4100732424,0.2772638208\C,4.680244908
 3,-9.1874693877,0.2802225169\C,2.9345327691,-3.7397059964,0.3374977287
 \C,1.8100569784,-8.5013669437,0.3404326235\H,-2.1104959387,-8.56457525
 81,0.4185825341\H,-4.4625423761,-7.9925142114,0.467887531\H,2.08637390
 38,-9.548521946,0.3306272177\H,-0.2310009815,-9.0012385132,0.379168248
 2\H,6.3221773776,-10.5394245556,0.2418471375\H,3.9627110655,-9.9988388
 477,0.2911929016\H,7.881586329,-3.9354348542,0.2377514258\H,5.52951577
 79,-3.3634267861,0.2870788581\H,3.6501237076,-2.926808768,0.326543403\
 H,1.332730375,-2.3795197495,0.3750932327\H,-0.5435306433,-1.9291994248
 ,0.4145178765\H,-2.9029890092,-1.3885591745,0.463841855\H,-6.972995379
 4,-3.9135013008,0.5346440562\H,10.3921265081,-8.0144004078,0.170978229
 2\\Version=ES64L-G16RevC.01\State=1-A\HF=-1382.8091393\RMSD=7.934e-09\
 RMSF=3.352e-05\Dipole=0.0000031,0.0000094,-0.0000022\Quadrupole=10.496
 9798,8.8819217,-19.3789015,-0.4042552,-0.5989654,0.1240757\PG=C01 [X(C
 36H18)]\\@
 The archive entry for this job was punched.


 DEMOCRATS BUY MOST OF THE BOOKS THAT HAVE BEEN
 BANNED; REPUBLICANS FORM CENSORSHIP COMMITTEES AND
 READ THEM AS A GROUP.
 Job cpu time:       0 days  1 hours 31 minutes 29.5 seconds.
 Elapsed time:       0 days  0 hours 45 minutes 52.3 seconds.
 File lengths (MBytes):  RWF=    210 Int=      0 D2E=      0 Chk=     27 Scr=      1
 Normal termination of Gaussian 16 at Wed Jan 26 00:18:52 2022.
