 Entering Gaussian System, Link 0=g16
 Initial command:
 /opt/software/gaussian/g16.c01/l1.exe "/localscratch/lustra.25367346.0/Gau-76053.inp" -scrdir="/localscratch/lustra.25367346.0/"
 Entering Link 1 = /opt/software/gaussian/g16.c01/l1.exe PID=     76055.
  
 Copyright (c) 1988-2019, Gaussian, Inc.  All Rights Reserved.
  
 This is part of the Gaussian(R) 16 program.  It is based on
 the Gaussian(R) 09 system (copyright 2009, Gaussian, Inc.),
 the Gaussian(R) 03 system (copyright 2003, Gaussian, Inc.),
 the Gaussian(R) 98 system (copyright 1998, Gaussian, Inc.),
 the Gaussian(R) 94 system (copyright 1995, Gaussian, Inc.),
 the Gaussian 92(TM) system (copyright 1992, Gaussian, Inc.),
 the Gaussian 90(TM) system (copyright 1990, Gaussian, Inc.),
 the Gaussian 88(TM) system (copyright 1988, Gaussian, Inc.),
 the Gaussian 86(TM) system (copyright 1986, Carnegie Mellon
 University), and the Gaussian 82(TM) system (copyright 1983,
 Carnegie Mellon University). Gaussian is a federally registered
 trademark of Gaussian, Inc.
  
 This software contains proprietary and confidential information,
 including trade secrets, belonging to Gaussian, Inc.
  
 This software is provided under written license and may be
 used, copied, transmitted, or stored only in accord with that
 written license.
  
 The following legend is applicable only to US Government
 contracts under FAR:
  
                    RESTRICTED RIGHTS LEGEND
  
 Use, reproduction and disclosure by the US Government is
 subject to restrictions as set forth in subparagraphs (a)
 and (c) of the Commercial Computer Software - Restricted
 Rights clause in FAR 52.227-19.
  
 Gaussian, Inc.
 340 Quinnipiac St., Bldg. 40, Wallingford CT 06492
  
  
 ---------------------------------------------------------------
 Warning -- This program may not be used in any manner that
 competes with the business of Gaussian, Inc. or will provide
 assistance to any competitor of Gaussian, Inc.  The licensee
 of this program is prohibited from giving any competitor of
 Gaussian, Inc. access to this program.  By using this program,
 the user acknowledges that Gaussian, Inc. is engaged in the
 business of creating and licensing software in the field of
 computational chemistry and represents and warrants to the
 licensee that it is not a competitor of Gaussian, Inc. and that
 it will not use this program in any manner prohibited above.
 ---------------------------------------------------------------
  

 Cite this work as:
 Gaussian 16, Revision C.01,
 M. J. Frisch, G. W. Trucks, H. B. Schlegel, G. E. Scuseria, 
 M. A. Robb, J. R. Cheeseman, G. Scalmani, V. Barone, 
 G. A. Petersson, H. Nakatsuji, X. Li, M. Caricato, A. V. Marenich, 
 J. Bloino, B. G. Janesko, R. Gomperts, B. Mennucci, H. P. Hratchian, 
 J. V. Ortiz, A. F. Izmaylov, J. L. Sonnenberg, D. Williams-Young, 
 F. Ding, F. Lipparini, F. Egidi, J. Goings, B. Peng, A. Petrone, 
 T. Henderson, D. Ranasinghe, V. G. Zakrzewski, J. Gao, N. Rega, 
 G. Zheng, W. Liang, M. Hada, M. Ehara, K. Toyota, R. Fukuda, 
 J. Hasegawa, M. Ishida, T. Nakajima, Y. Honda, O. Kitao, H. Nakai, 
 T. Vreven, K. Throssell, J. A. Montgomery, Jr., J. E. Peralta, 
 F. Ogliaro, M. J. Bearpark, J. J. Heyd, E. N. Brothers, K. N. Kudin, 
 V. N. Staroverov, T. A. Keith, R. Kobayashi, J. Normand, 
 K. Raghavachari, A. P. Rendell, J. C. Burant, S. S. Iyengar, 
 J. Tomasi, M. Cossi, J. M. Millam, M. Klene, C. Adamo, R. Cammi, 
 J. W. Ochterski, R. L. Martin, K. Morokuma, O. Farkas, 
 J. B. Foresman, and D. J. Fox, Gaussian, Inc., Wallingford CT, 2019.
 
 ******************************************
 Gaussian 16:  ES64L-G16RevC.01  3-Jul-2019
                26-Jan-2022 
 ******************************************
 %NProcShared=2
 Will use up to    2 processors via shared memory.
 %Chk=checkpoint.chk
 ---------------------
 #n B3LYP/6-31G(d) Opt
 ---------------------
 1/18=20,19=15,26=3,38=1/1,3;
 2/9=110,12=2,17=6,18=5,40=1/2;
 3/5=1,6=6,7=1,11=2,25=1,30=1,71=1,74=-5/1,2,3;
 4//1;
 5/5=2,38=5/2;
 6/7=2,8=2,9=2,10=2,28=1/1;
 7//1,2,3,16;
 1/18=20,19=15,26=3/3(2);
 2/9=110/2;
 99//99;
 2/9=110/2;
 3/5=1,6=6,7=1,11=2,25=1,30=1,71=1,74=-5/1,2,3;
 4/5=5,16=3,69=1/1;
 5/5=2,38=5/2;
 7//1,2,3,16;
 1/18=20,19=15,26=3/3(-5);
 2/9=110/2;
 6/7=2,8=2,9=2,10=2,19=2,28=1/1;
 99/9=1/99;
 -----------------
 ditertbutylpyrene
 -----------------
 Symbolic Z-matrix:
 Charge =  0 Multiplicity = 1
 C                    -1.03008   2.83666   0.4216 
 C                     0.29061   2.53369   0.00885 
 C                    -1.79448   1.80168   1.00839 
 C                    -1.27034   0.51328   1.18032 
 C                     0.82728   1.24814   0.1752 
 C                     0.04518   0.23422   0.76261 
 C                     0.57997  -1.06199   0.93269 
 C                    -0.20214  -2.07592   1.52008 
 C                     1.89547  -1.34107   0.51495 
 C                     0.3345   -3.36149   1.68636 
 C                     2.41958  -2.62949   0.68678 
 C                     1.65516  -3.66449   1.2735 
 H                    -2.80767   1.99489   1.33632 
 C                    -2.04181  -0.50323   1.76446 
 C                     2.13762   0.95869  -0.23757 
 C                    -1.65475   4.23978   0.25467 
 H                     0.92056   3.28453  -0.44538 
 H                     3.43274  -2.82272   0.35878 
 C                     2.27973  -5.06767   1.44019 
 C                    -1.51247  -1.78646   1.93287 
 H                    -0.29546  -4.11234   2.14055 
 C                     2.66696  -0.32454  -0.06916 
 H                     2.75452   1.72523  -0.69135 
 H                     3.68098  -0.52153  -0.39637 
 H                    -3.05584  -0.30625   2.09165 
 H                    -2.12938  -2.553     2.38665 
 C                     1.31705  -6.08625   2.09727 
 C                     3.53569  -4.96958   2.33339 
 C                     2.67287  -5.62431   0.05437 
 C                    -0.69206   5.25835  -0.40243 
 C                    -2.04813   4.79657   1.64035 
 C                    -2.91057   4.14144  -0.6387 
 H                     1.77658  -5.70629  -0.59793 
 H                     3.12804  -6.63403   0.15004 
 H                     3.41408  -4.9748   -0.45556 
 H                     1.02265  -5.75481   3.11659 
 H                     1.80439  -7.0805    2.19841 
 H                     0.40308  -6.22498   1.48006 
 H                    -2.64115   3.74748  -1.64258 
 H                    -3.37946   5.14075  -0.77061 
 H                    -3.67817   3.4719   -0.19848 
 H                     0.22181   5.39723   0.21489 
 H                    -1.17948   6.25254  -0.50377 
 H                    -0.39751   4.9268   -1.42167 
 H                    -1.15194   4.87874   2.29277 
 H                    -2.78936   4.14708   2.15027 
 H                    -2.50338   5.80624   1.54446 
 H                     3.26646  -4.57574   3.33737 
 H                     4.30329  -4.30006   1.89316 
 H                     4.0045   -5.96895   2.46509 
 

 GradGradGradGradGradGradGradGradGradGradGradGradGradGradGradGradGradGrad
 Berny optimization.
 Initialization pass.
                           ----------------------------
                           !    Initial Parameters    !
                           ! (Angstroms and Degrees)  !
 --------------------------                            --------------------------
 ! Name  Definition              Value          Derivative Info.                !
 --------------------------------------------------------------------------------
 ! R1    R(1,2)                  1.4165         estimate D2E/DX2                !
 ! R2    R(1,3)                  1.4141         estimate D2E/DX2                !
 ! R3    R(1,16)                 1.5449         estimate D2E/DX2                !
 ! R4    R(2,5)                  1.403          estimate D2E/DX2                !
 ! R5    R(2,17)                 1.0802         estimate D2E/DX2                !
 ! R6    R(3,4)                  1.4015         estimate D2E/DX2                !
 ! R7    R(3,13)                 1.0823         estimate D2E/DX2                !
 ! R8    R(4,6)                  1.4082         estimate D2E/DX2                !
 ! R9    R(4,14)                 1.4035         estimate D2E/DX2                !
 ! R10   R(5,6)                  1.4088         estimate D2E/DX2                !
 ! R11   R(5,15)                 1.404          estimate D2E/DX2                !
 ! R12   R(6,7)                  1.4125         estimate D2E/DX2                !
 ! R13   R(7,8)                  1.4088         estimate D2E/DX2                !
 ! R14   R(7,9)                  1.4082         estimate D2E/DX2                !
 ! R15   R(8,10)                 1.403          estimate D2E/DX2                !
 ! R16   R(8,20)                 1.404          estimate D2E/DX2                !
 ! R17   R(9,11)                 1.4015         estimate D2E/DX2                !
 ! R18   R(9,22)                 1.4035         estimate D2E/DX2                !
 ! R19   R(10,12)                1.4165         estimate D2E/DX2                !
 ! R20   R(10,21)                1.0802         estimate D2E/DX2                !
 ! R21   R(11,12)                1.4141         estimate D2E/DX2                !
 ! R22   R(11,18)                1.0823         estimate D2E/DX2                !
 ! R23   R(12,19)                1.5449         estimate D2E/DX2                !
 ! R24   R(14,20)                1.3983         estimate D2E/DX2                !
 ! R25   R(14,25)                1.0836         estimate D2E/DX2                !
 ! R26   R(15,22)                1.3983         estimate D2E/DX2                !
 ! R27   R(15,23)                1.0835         estimate D2E/DX2                !
 ! R28   R(16,30)                1.5479         estimate D2E/DX2                !
 ! R29   R(16,31)                1.5443         estimate D2E/DX2                !
 ! R30   R(16,32)                1.5443         estimate D2E/DX2                !
 ! R31   R(19,27)                1.5479         estimate D2E/DX2                !
 ! R32   R(19,28)                1.5443         estimate D2E/DX2                !
 ! R33   R(19,29)                1.5443         estimate D2E/DX2                !
 ! R34   R(20,26)                1.0835         estimate D2E/DX2                !
 ! R35   R(22,24)                1.0836         estimate D2E/DX2                !
 ! R36   R(27,36)                1.1115         estimate D2E/DX2                !
 ! R37   R(27,37)                1.1119         estimate D2E/DX2                !
 ! R38   R(27,38)                1.1115         estimate D2E/DX2                !
 ! R39   R(28,48)                1.1116         estimate D2E/DX2                !
 ! R40   R(28,49)                1.1096         estimate D2E/DX2                !
 ! R41   R(28,50)                1.1117         estimate D2E/DX2                !
 ! R42   R(29,33)                1.1116         estimate D2E/DX2                !
 ! R43   R(29,34)                1.1117         estimate D2E/DX2                !
 ! R44   R(29,35)                1.1096         estimate D2E/DX2                !
 ! R45   R(30,42)                1.1115         estimate D2E/DX2                !
 ! R46   R(30,43)                1.1119         estimate D2E/DX2                !
 ! R47   R(30,44)                1.1115         estimate D2E/DX2                !
 ! R48   R(31,45)                1.1116         estimate D2E/DX2                !
 ! R49   R(31,46)                1.1096         estimate D2E/DX2                !
 ! R50   R(31,47)                1.1117         estimate D2E/DX2                !
 ! R51   R(32,39)                1.1116         estimate D2E/DX2                !
 ! R52   R(32,40)                1.1117         estimate D2E/DX2                !
 ! R53   R(32,41)                1.1096         estimate D2E/DX2                !
 ! A1    A(2,1,3)              117.9278         estimate D2E/DX2                !
 ! A2    A(2,1,16)             122.6678         estimate D2E/DX2                !
 ! A3    A(3,1,16)             119.4044         estimate D2E/DX2                !
 ! A4    A(1,2,5)              121.2048         estimate D2E/DX2                !
 ! A5    A(1,2,17)             121.1704         estimate D2E/DX2                !
 ! A6    A(5,2,17)             117.6248         estimate D2E/DX2                !
 ! A7    A(1,3,4)              121.4367         estimate D2E/DX2                !
 ! A8    A(1,3,13)             120.0717         estimate D2E/DX2                !
 ! A9    A(4,3,13)             118.4916         estimate D2E/DX2                !
 ! A10   A(3,4,6)              119.6804         estimate D2E/DX2                !
 ! A11   A(3,4,14)             120.7516         estimate D2E/DX2                !
 ! A12   A(6,4,14)             119.568          estimate D2E/DX2                !
 ! A13   A(2,5,6)              119.7715         estimate D2E/DX2                !
 ! A14   A(2,5,15)             120.7346         estimate D2E/DX2                !
 ! A15   A(6,5,15)             119.4939         estimate D2E/DX2                !
 ! A16   A(4,6,5)              119.9787         estimate D2E/DX2                !
 ! A17   A(4,6,7)              119.99           estimate D2E/DX2                !
 ! A18   A(5,6,7)              120.0313         estimate D2E/DX2                !
 ! A19   A(6,7,8)              120.0313         estimate D2E/DX2                !
 ! A20   A(6,7,9)              119.9904         estimate D2E/DX2                !
 ! A21   A(8,7,9)              119.9782         estimate D2E/DX2                !
 ! A22   A(7,8,10)             119.7717         estimate D2E/DX2                !
 ! A23   A(7,8,20)             119.4937         estimate D2E/DX2                !
 ! A24   A(10,8,20)            120.7347         estimate D2E/DX2                !
 ! A25   A(7,9,11)             119.6812         estimate D2E/DX2                !
 ! A26   A(7,9,22)             119.5675         estimate D2E/DX2                !
 ! A27   A(11,9,22)            120.7513         estimate D2E/DX2                !
 ! A28   A(8,10,12)            121.2046         estimate D2E/DX2                !
 ! A29   A(8,10,21)            117.6251         estimate D2E/DX2                !
 ! A30   A(12,10,21)           121.1704         estimate D2E/DX2                !
 ! A31   A(9,11,12)            121.4366         estimate D2E/DX2                !
 ! A32   A(9,11,18)            118.492          estimate D2E/DX2                !
 ! A33   A(12,11,18)           120.0715         estimate D2E/DX2                !
 ! A34   A(10,12,11)           117.9277         estimate D2E/DX2                !
 ! A35   A(10,12,19)           122.6675         estimate D2E/DX2                !
 ! A36   A(11,12,19)           119.4048         estimate D2E/DX2                !
 ! A37   A(4,14,20)            120.4459         estimate D2E/DX2                !
 ! A38   A(4,14,25)            120.5594         estimate D2E/DX2                !
 ! A39   A(20,14,25)           118.9947         estimate D2E/DX2                !
 ! A40   A(5,15,22)            120.471          estimate D2E/DX2                !
 ! A41   A(5,15,23)            120.5734         estimate D2E/DX2                !
 ! A42   A(22,15,23)           118.9557         estimate D2E/DX2                !
 ! A43   A(1,16,30)            113.0806         estimate D2E/DX2                !
 ! A44   A(1,16,31)            109.4809         estimate D2E/DX2                !
 ! A45   A(1,16,32)            109.4799         estimate D2E/DX2                !
 ! A46   A(30,16,31)           107.5825         estimate D2E/DX2                !
 ! A47   A(30,16,32)           107.5824         estimate D2E/DX2                !
 ! A48   A(31,16,32)           109.5658         estimate D2E/DX2                !
 ! A49   A(12,19,27)           113.0814         estimate D2E/DX2                !
 ! A50   A(12,19,28)           109.4817         estimate D2E/DX2                !
 ! A51   A(12,19,29)           109.4795         estimate D2E/DX2                !
 ! A52   A(27,19,28)           107.5824         estimate D2E/DX2                !
 ! A53   A(27,19,29)           107.5819         estimate D2E/DX2                !
 ! A54   A(28,19,29)           109.5652         estimate D2E/DX2                !
 ! A55   A(8,20,14)            120.4711         estimate D2E/DX2                !
 ! A56   A(8,20,26)            120.5736         estimate D2E/DX2                !
 ! A57   A(14,20,26)           118.9553         estimate D2E/DX2                !
 ! A58   A(9,22,15)            120.446          estimate D2E/DX2                !
 ! A59   A(9,22,24)            120.5591         estimate D2E/DX2                !
 ! A60   A(15,22,24)           118.9949         estimate D2E/DX2                !
 ! A61   A(19,27,36)           110.9641         estimate D2E/DX2                !
 ! A62   A(19,27,37)           110.7595         estimate D2E/DX2                !
 ! A63   A(19,27,38)           110.9649         estimate D2E/DX2                !
 ! A64   A(36,27,37)           107.416          estimate D2E/DX2                !
 ! A65   A(36,27,38)           109.186          estimate D2E/DX2                !
 ! A66   A(37,27,38)           107.4157         estimate D2E/DX2                !
 ! A67   A(19,28,48)           110.3605         estimate D2E/DX2                !
 ! A68   A(19,28,49)           111.8058         estimate D2E/DX2                !
 ! A69   A(19,28,50)           110.756          estimate D2E/DX2                !
 ! A70   A(48,28,49)           108.1863         estimate D2E/DX2                !
 ! A71   A(48,28,50)           108.2794         estimate D2E/DX2                !
 ! A72   A(49,28,50)           107.3188         estimate D2E/DX2                !
 ! A73   A(19,29,33)           110.3602         estimate D2E/DX2                !
 ! A74   A(19,29,34)           110.7559         estimate D2E/DX2                !
 ! A75   A(19,29,35)           111.8052         estimate D2E/DX2                !
 ! A76   A(33,29,34)           108.28           estimate D2E/DX2                !
 ! A77   A(33,29,35)           108.1863         estimate D2E/DX2                !
 ! A78   A(34,29,35)           107.3194         estimate D2E/DX2                !
 ! A79   A(16,30,42)           110.9641         estimate D2E/DX2                !
 ! A80   A(16,30,43)           110.7587         estimate D2E/DX2                !
 ! A81   A(16,30,44)           110.9642         estimate D2E/DX2                !
 ! A82   A(42,30,43)           107.4166         estimate D2E/DX2                !
 ! A83   A(42,30,44)           109.1871         estimate D2E/DX2                !
 ! A84   A(43,30,44)           107.4155         estimate D2E/DX2                !
 ! A85   A(16,31,45)           110.3609         estimate D2E/DX2                !
 ! A86   A(16,31,46)           111.8059         estimate D2E/DX2                !
 ! A87   A(16,31,47)           110.755          estimate D2E/DX2                !
 ! A88   A(45,31,46)           108.1868         estimate D2E/DX2                !
 ! A89   A(45,31,47)           108.2795         estimate D2E/DX2                !
 ! A90   A(46,31,47)           107.3188         estimate D2E/DX2                !
 ! A91   A(16,32,39)           110.3602         estimate D2E/DX2                !
 ! A92   A(16,32,40)           110.756          estimate D2E/DX2                !
 ! A93   A(16,32,41)           111.8055         estimate D2E/DX2                !
 ! A94   A(39,32,40)           108.2798         estimate D2E/DX2                !
 ! A95   A(39,32,41)           108.1864         estimate D2E/DX2                !
 ! A96   A(40,32,41)           107.319          estimate D2E/DX2                !
 ! D1    D(3,1,2,5)              0.0023         estimate D2E/DX2                !
 ! D2    D(3,1,2,17)          -179.9998         estimate D2E/DX2                !
 ! D3    D(16,1,2,5)          -179.9962         estimate D2E/DX2                !
 ! D4    D(16,1,2,17)            0.0017         estimate D2E/DX2                !
 ! D5    D(2,1,3,4)             -0.0015         estimate D2E/DX2                !
 ! D6    D(2,1,3,13)           179.9995         estimate D2E/DX2                !
 ! D7    D(16,1,3,4)           179.9971         estimate D2E/DX2                !
 ! D8    D(16,1,3,13)           -0.0019         estimate D2E/DX2                !
 ! D9    D(2,1,16,30)           -0.002          estimate D2E/DX2                !
 ! D10   D(2,1,16,31)         -119.9389         estimate D2E/DX2                !
 ! D11   D(2,1,16,32)          119.934          estimate D2E/DX2                !
 ! D12   D(3,1,16,30)          179.9995         estimate D2E/DX2                !
 ! D13   D(3,1,16,31)           60.0626         estimate D2E/DX2                !
 ! D14   D(3,1,16,32)          -60.0645         estimate D2E/DX2                !
 ! D15   D(1,2,5,6)             -0.0013         estimate D2E/DX2                !
 ! D16   D(1,2,5,15)           179.9978         estimate D2E/DX2                !
 ! D17   D(17,2,5,6)          -179.9992         estimate D2E/DX2                !
 ! D18   D(17,2,5,15)           -0.0001         estimate D2E/DX2                !
 ! D19   D(1,3,4,6)             -0.0003         estimate D2E/DX2                !
 ! D20   D(1,3,4,14)          -179.9993         estimate D2E/DX2                !
 ! D21   D(13,3,4,6)           179.9987         estimate D2E/DX2                !
 ! D22   D(13,3,4,14)           -0.0003         estimate D2E/DX2                !
 ! D23   D(3,4,6,5)              0.0014         estimate D2E/DX2                !
 ! D24   D(3,4,6,7)           -179.9973         estimate D2E/DX2                !
 ! D25   D(14,4,6,5)          -179.9996         estimate D2E/DX2                !
 ! D26   D(14,4,6,7)             0.0016         estimate D2E/DX2                !
 ! D27   D(3,4,14,20)          179.9972         estimate D2E/DX2                !
 ! D28   D(3,4,14,25)           -0.0011         estimate D2E/DX2                !
 ! D29   D(6,4,14,20)           -0.0018         estimate D2E/DX2                !
 ! D30   D(6,4,14,25)          179.9999         estimate D2E/DX2                !
 ! D31   D(2,5,6,4)             -0.0007         estimate D2E/DX2                !
 ! D32   D(2,5,6,7)            179.9981         estimate D2E/DX2                !
 ! D33   D(15,5,6,4)          -179.9997         estimate D2E/DX2                !
 ! D34   D(15,5,6,7)            -0.001          estimate D2E/DX2                !
 ! D35   D(2,5,15,22)         -179.998          estimate D2E/DX2                !
 ! D36   D(2,5,15,23)            0.0014         estimate D2E/DX2                !
 ! D37   D(6,5,15,22)            0.0011         estimate D2E/DX2                !
 ! D38   D(6,5,15,23)         -179.9995         estimate D2E/DX2                !
 ! D39   D(4,6,7,8)             -0.0001         estimate D2E/DX2                !
 ! D40   D(4,6,7,9)            179.9982         estimate D2E/DX2                !
 ! D41   D(5,6,7,8)           -179.9989         estimate D2E/DX2                !
 ! D42   D(5,6,7,9)             -0.0006         estimate D2E/DX2                !
 ! D43   D(6,7,8,10)           179.9982         estimate D2E/DX2                !
 ! D44   D(6,7,8,20)            -0.0013         estimate D2E/DX2                !
 ! D45   D(9,7,8,10)            -0.0001         estimate D2E/DX2                !
 ! D46   D(9,7,8,20)          -179.9996         estimate D2E/DX2                !
 ! D47   D(6,7,9,11)          -179.9977         estimate D2E/DX2                !
 ! D48   D(6,7,9,22)             0.002          estimate D2E/DX2                !
 ! D49   D(8,7,9,11)             0.0006         estimate D2E/DX2                !
 ! D50   D(8,7,9,22)          -179.9997         estimate D2E/DX2                !
 ! D51   D(7,8,10,12)           -0.0016         estimate D2E/DX2                !
 ! D52   D(7,8,10,21)         -179.9993         estimate D2E/DX2                !
 ! D53   D(20,8,10,12)         179.9978         estimate D2E/DX2                !
 ! D54   D(20,8,10,21)           0.0002         estimate D2E/DX2                !
 ! D55   D(7,8,20,14)            0.0012         estimate D2E/DX2                !
 ! D56   D(7,8,20,26)         -179.9996         estimate D2E/DX2                !
 ! D57   D(10,8,20,14)        -179.9983         estimate D2E/DX2                !
 ! D58   D(10,8,20,26)           0.001          estimate D2E/DX2                !
 ! D59   D(7,9,11,12)            0.0006         estimate D2E/DX2                !
 ! D60   D(7,9,11,18)          179.9983         estimate D2E/DX2                !
 ! D61   D(22,9,11,12)        -179.9991         estimate D2E/DX2                !
 ! D62   D(22,9,11,18)          -0.0014         estimate D2E/DX2                !
 ! D63   D(7,9,22,15)           -0.0019         estimate D2E/DX2                !
 ! D64   D(7,9,22,24)          179.9998         estimate D2E/DX2                !
 ! D65   D(11,9,22,15)         179.9978         estimate D2E/DX2                !
 ! D66   D(11,9,22,24)          -0.0005         estimate D2E/DX2                !
 ! D67   D(8,10,12,11)           0.0028         estimate D2E/DX2                !
 ! D68   D(8,10,12,19)        -179.996          estimate D2E/DX2                !
 ! D69   D(21,10,12,11)       -179.9997         estimate D2E/DX2                !
 ! D70   D(21,10,12,19)          0.0016         estimate D2E/DX2                !
 ! D71   D(9,11,12,10)          -0.0023         estimate D2E/DX2                !
 ! D72   D(9,11,12,19)         179.9965         estimate D2E/DX2                !
 ! D73   D(18,11,12,10)       -179.9999         estimate D2E/DX2                !
 ! D74   D(18,11,12,19)         -0.0011         estimate D2E/DX2                !
 ! D75   D(10,12,19,27)         -0.0022         estimate D2E/DX2                !
 ! D76   D(10,12,19,28)       -119.94           estimate D2E/DX2                !
 ! D77   D(10,12,19,29)        119.9334         estimate D2E/DX2                !
 ! D78   D(11,12,19,27)        179.9991         estimate D2E/DX2                !
 ! D79   D(11,12,19,28)         60.0613         estimate D2E/DX2                !
 ! D80   D(11,12,19,29)        -60.0653         estimate D2E/DX2                !
 ! D81   D(4,14,20,8)            0.0004         estimate D2E/DX2                !
 ! D82   D(4,14,20,26)        -179.9989         estimate D2E/DX2                !
 ! D83   D(25,14,20,8)         179.9987         estimate D2E/DX2                !
 ! D84   D(25,14,20,26)         -0.0006         estimate D2E/DX2                !
 ! D85   D(5,15,22,9)            0.0004         estimate D2E/DX2                !
 ! D86   D(5,15,22,24)         179.9987         estimate D2E/DX2                !
 ! D87   D(23,15,22,9)        -179.999          estimate D2E/DX2                !
 ! D88   D(23,15,22,24)         -0.0007         estimate D2E/DX2                !
 ! D89   D(1,16,30,42)         -60.7906         estimate D2E/DX2                !
 ! D90   D(1,16,30,43)         179.9992         estimate D2E/DX2                !
 ! D91   D(1,16,30,44)          60.7902         estimate D2E/DX2                !
 ! D92   D(31,16,30,42)         60.2277         estimate D2E/DX2                !
 ! D93   D(31,16,30,43)        -58.9825         estimate D2E/DX2                !
 ! D94   D(31,16,30,44)       -178.1915         estimate D2E/DX2                !
 ! D95   D(32,16,30,42)        178.1925         estimate D2E/DX2                !
 ! D96   D(32,16,30,43)         58.9823         estimate D2E/DX2                !
 ! D97   D(32,16,30,44)        -60.2266         estimate D2E/DX2                !
 ! D98   D(1,16,31,45)          60.2704         estimate D2E/DX2                !
 ! D99   D(1,16,31,46)         -60.1975         estimate D2E/DX2                !
 ! D100  D(1,16,31,47)        -179.8345         estimate D2E/DX2                !
 ! D101  D(30,16,31,45)        -62.9805         estimate D2E/DX2                !
 ! D102  D(30,16,31,46)        176.5516         estimate D2E/DX2                !
 ! D103  D(30,16,31,47)         56.9147         estimate D2E/DX2                !
 ! D104  D(32,16,31,45)       -179.6551         estimate D2E/DX2                !
 ! D105  D(32,16,31,46)         59.877          estimate D2E/DX2                !
 ! D106  D(32,16,31,47)        -59.7599         estimate D2E/DX2                !
 ! D107  D(1,16,32,39)         -60.2691         estimate D2E/DX2                !
 ! D108  D(1,16,32,40)         179.8351         estimate D2E/DX2                !
 ! D109  D(1,16,32,41)          60.1975         estimate D2E/DX2                !
 ! D110  D(30,16,32,39)         62.981          estimate D2E/DX2                !
 ! D111  D(30,16,32,40)        -56.9148         estimate D2E/DX2                !
 ! D112  D(30,16,32,41)       -176.5524         estimate D2E/DX2                !
 ! D113  D(31,16,32,39)        179.6557         estimate D2E/DX2                !
 ! D114  D(31,16,32,40)         59.7599         estimate D2E/DX2                !
 ! D115  D(31,16,32,41)        -59.8777         estimate D2E/DX2                !
 ! D116  D(12,19,27,36)        -60.7908         estimate D2E/DX2                !
 ! D117  D(12,19,27,37)        179.9992         estimate D2E/DX2                !
 ! D118  D(12,19,27,38)         60.7891         estimate D2E/DX2                !
 ! D119  D(28,19,27,36)         60.2288         estimate D2E/DX2                !
 ! D120  D(28,19,27,37)        -58.9812         estimate D2E/DX2                !
 ! D121  D(28,19,27,38)       -178.1913         estimate D2E/DX2                !
 ! D122  D(29,19,27,36)        178.1926         estimate D2E/DX2                !
 ! D123  D(29,19,27,37)         58.9827         estimate D2E/DX2                !
 ! D124  D(29,19,27,38)        -60.2274         estimate D2E/DX2                !
 ! D125  D(12,19,28,48)         60.2705         estimate D2E/DX2                !
 ! D126  D(12,19,28,49)        -60.1964         estimate D2E/DX2                !
 ! D127  D(12,19,28,50)       -179.834          estimate D2E/DX2                !
 ! D128  D(27,19,28,48)        -62.9817         estimate D2E/DX2                !
 ! D129  D(27,19,28,49)        176.5514         estimate D2E/DX2                !
 ! D130  D(27,19,28,50)         56.9139         estimate D2E/DX2                !
 ! D131  D(29,19,28,48)       -179.6553         estimate D2E/DX2                !
 ! D132  D(29,19,28,49)         59.8778         estimate D2E/DX2                !
 ! D133  D(29,19,28,50)        -59.7598         estimate D2E/DX2                !
 ! D134  D(12,19,29,33)        -60.2689         estimate D2E/DX2                !
 ! D135  D(12,19,29,34)        179.8351         estimate D2E/DX2                !
 ! D136  D(12,19,29,35)         60.1974         estimate D2E/DX2                !
 ! D137  D(27,19,29,33)         62.9816         estimate D2E/DX2                !
 ! D138  D(27,19,29,34)        -56.9144         estimate D2E/DX2                !
 ! D139  D(27,19,29,35)       -176.5521         estimate D2E/DX2                !
 ! D140  D(28,19,29,33)        179.6556         estimate D2E/DX2                !
 ! D141  D(28,19,29,34)         59.7596         estimate D2E/DX2                !
 ! D142  D(28,19,29,35)        -59.8781         estimate D2E/DX2                !
 --------------------------------------------------------------------------------
 Trust Radius=3.00D-01 FncErr=1.00D-07 GrdErr=1.00D-06 EigMax=2.50D+02 EigMin=1.00D-04
 Number of steps in this run=    300 maximum allowed number of steps=    300.
 GradGradGradGradGradGradGradGradGradGradGradGradGradGradGradGradGradGrad

                          Input orientation:                          
 ---------------------------------------------------------------------
 Center     Atomic      Atomic             Coordinates (Angstroms)
 Number     Number       Type             X           Y           Z
 ---------------------------------------------------------------------
      1          6           0       -1.030080    2.836660    0.421600
      2          6           0        0.290610    2.533690    0.008850
      3          6           0       -1.794480    1.801680    1.008390
      4          6           0       -1.270340    0.513280    1.180320
      5          6           0        0.827280    1.248140    0.175200
      6          6           0        0.045180    0.234220    0.762610
      7          6           0        0.579970   -1.061990    0.932690
      8          6           0       -0.202140   -2.075920    1.520080
      9          6           0        1.895470   -1.341070    0.514950
     10          6           0        0.334500   -3.361490    1.686360
     11          6           0        2.419580   -2.629490    0.686780
     12          6           0        1.655160   -3.664490    1.273500
     13          1           0       -2.807670    1.994890    1.336320
     14          6           0       -2.041810   -0.503230    1.764460
     15          6           0        2.137620    0.958690   -0.237570
     16          6           0       -1.654750    4.239780    0.254670
     17          1           0        0.920560    3.284530   -0.445380
     18          1           0        3.432740   -2.822720    0.358780
     19          6           0        2.279730   -5.067670    1.440190
     20          6           0       -1.512470   -1.786460    1.932870
     21          1           0       -0.295460   -4.112340    2.140550
     22          6           0        2.666960   -0.324540   -0.069160
     23          1           0        2.754520    1.725230   -0.691350
     24          1           0        3.680980   -0.521530   -0.396370
     25          1           0       -3.055840   -0.306250    2.091650
     26          1           0       -2.129380   -2.553000    2.386650
     27          6           0        1.317050   -6.086250    2.097270
     28          6           0        3.535690   -4.969580    2.333390
     29          6           0        2.672870   -5.624310    0.054370
     30          6           0       -0.692060    5.258350   -0.402430
     31          6           0       -2.048130    4.796570    1.640350
     32          6           0       -2.910570    4.141440   -0.638700
     33          1           0        1.776580   -5.706290   -0.597930
     34          1           0        3.128040   -6.634030    0.150040
     35          1           0        3.414080   -4.974800   -0.455560
     36          1           0        1.022650   -5.754810    3.116590
     37          1           0        1.804390   -7.080500    2.198410
     38          1           0        0.403080   -6.224980    1.480060
     39          1           0       -2.641150    3.747480   -1.642580
     40          1           0       -3.379460    5.140750   -0.770610
     41          1           0       -3.678170    3.471900   -0.198480
     42          1           0        0.221810    5.397230    0.214890
     43          1           0       -1.179480    6.252540   -0.503770
     44          1           0       -0.397510    4.926800   -1.421670
     45          1           0       -1.151940    4.878740    2.292770
     46          1           0       -2.789360    4.147080    2.150270
     47          1           0       -2.503380    5.806240    1.544460
     48          1           0        3.266460   -4.575740    3.337370
     49          1           0        4.303290   -4.300060    1.893160
     50          1           0        4.004500   -5.968950    2.465090
 ---------------------------------------------------------------------
                    Distance matrix (angstroms):
                    1          2          3          4          5
     1  C    0.000000
     2  C    1.416466   0.000000
     3  C    1.414148   2.425391   0.000000
     4  C    2.455906   2.809086   1.401520   0.000000
     5  C    2.456399   1.402970   2.806107   2.439323   0.000000
     6  C    2.836400   2.432273   2.429339   1.408172   1.408817
     7  C    4.248876   3.723725   3.720800   2.442630   2.443697
     8  C    5.101528   4.875974   4.222932   2.821426   3.730654
     9  C    5.101077   4.224391   4.871970   3.728764   2.821430
    10  C    6.471380   6.129365   5.625880   4.224385   4.875974
    11  C    6.469101   5.625880   6.123480   4.871970   4.222931
    12  C    7.085280   6.471381   6.469105   5.101078   5.101527
    13  H    2.169128   3.413476   1.082323   2.140768   3.888277
    14  C    3.739216   4.212509   2.438324   1.403452   3.718161
    15  C    3.741069   2.439835   4.210043   3.717929   1.403977
    16  C    1.544935   2.599153   2.555768   3.858938   3.888020
    17  H    2.181109   1.080242   3.418148   3.888801   2.130893
    18  H    7.207586   6.219852   7.009344   5.824327   4.836737
    19  C    8.629647   7.986614   7.998350   6.619481   6.602974
    20  C    4.887727   5.061289   3.716038   2.431823   4.215760
    21  H    7.196045   7.004094   6.205198   4.823774   5.818753
    22  C    4.888981   3.717876   5.058297   4.214911   2.432582
    23  H    4.098430   2.686027   4.856785   4.601247   2.166282
    24  H    5.842996   4.581832   6.111572   5.298335   3.406175
    25  H    4.095199   4.858193   2.684744   2.165678   4.600818
    26  H    5.841089   6.114303   4.579847   3.405181   5.299152
    27  C    9.377378   8.928519   8.549077   7.147670   7.597862
    28  C    9.243299   8.499005   8.718733   7.381683   7.117114
    29  C    9.243090   8.498835   8.718526   7.381509   7.116978
    30  C    2.580284   2.925502   3.892854   5.035394   4.327105
    31  C    2.522504   3.640347   3.071332   4.377574   4.796457
    32  C    2.522485   3.640293   3.071325   4.377526   4.796367
    33  H    9.049794   8.394853   8.467724   7.150451   7.061374
    34  H   10.346868   9.597814   9.804548   8.455251   8.211135
    35  H    9.029888   8.145500   8.671386   7.398575   6.768632
    36  H    9.235260   8.882182   8.335543   6.949525   7.598109
    37  H   10.466200   9.975889   9.657180   8.255663   8.626376
    38  H    9.235129   8.882084   8.335407   6.949412   7.598034
    39  H    2.772360   3.577111   3.395678   4.506433   4.645539
    40  H    3.499969   4.568778   4.101998   5.446833   5.808927
    41  H    2.792921   4.083435   2.791856   4.056127   5.038236
    42  H    2.857705   2.871767   4.197981   5.197262   4.193223
    43  H    3.542156   4.031599   4.740781   5.981933   5.434345
    44  H    2.857704   2.871737   4.197987   5.197244   4.193166
    45  H    2.772403   3.577220   3.395701   4.506529   4.645715
    46  H    2.792949   4.083494   2.791877   4.056196   5.038337
    47  H    3.499976   4.568814   4.102001   5.446872   5.808997
    48  H    9.050174   8.395161   8.468102   7.150772   7.061621
    49  H    9.030122   8.145696   8.671612   7.398766   6.768793
    50  H   10.347058   9.597968   9.804735   8.455405   8.211255
                    6          7          8          9         10
     6  C    0.000000
     7  C    1.412476   0.000000
     8  C    2.443701   1.408821   0.000000
     9  C    2.442631   1.408166   2.439315   0.000000
    10  C    3.723728   2.432278   1.402969   2.809079   0.000000
    11  C    3.720801   2.429340   2.806108   1.401515   2.425395
    12  C    4.248880   2.836405   2.456404   2.455896   1.416476
    13  H    3.401155   4.580779   4.836739   5.824329   6.219853
    14  C    2.429622   2.806739   2.432583   4.214905   3.717876
    15  C    2.429716   2.806943   4.215764   2.431834   5.061295
    16  C    4.380899   5.793311   6.602985   6.619494   7.986624
    17  H    3.395574   4.572452   5.818755   4.823781   7.004096
    18  H    4.580778   3.401153   3.888275   2.140765   3.413478
    19  C    5.793304   4.380892   3.888011   3.858921   2.599148
    20  C    2.806943   2.429716   1.403976   3.717919   2.439833
    21  H    4.572454   3.395576   2.130891   3.888790   1.080238
    22  C    2.806739   2.429622   3.718165   1.403465   4.212515
    23  H    3.417255   3.890343   5.299151   3.405190   6.114305
    24  H    3.890172   3.416835   4.600818   2.165686   4.858196
    25  H    3.416838   3.890173   3.406175   5.298330   4.581829
    26  H    3.890349   3.417263   2.166288   4.601245   2.686032
    27  C    6.583868   5.209868   4.327104   5.035379   2.925503
    28  C    6.459918   5.095832   4.796469   4.377571   3.640360
    29  C    6.459778   5.095728   4.796359   4.377514   3.640291
    30  C    5.209868   6.583867   7.597867   7.147674   8.928522
    31  C    5.095823   6.459908   7.117111   7.381675   8.498999
    32  C    5.095733   6.459785   7.116986   7.381520   8.498844
    33  H    6.335493   5.034302   4.645523   4.506416   3.577103
    34  H    7.553286   6.176798   5.808913   5.446817   4.568770
    35  H    6.321971   5.026878   5.038224   4.056114   4.083430
    36  H    6.508852   5.194992   4.193231   5.197254   2.871775
    37  H    7.659078   6.270862   5.434346   5.981922   4.031601
    38  H    6.508770   5.194937   4.193160   5.197234   2.871731
    39  H    5.034313   6.335506   7.061386   7.150468   8.394867
    40  H    6.176808   7.553297   8.211148   8.455267   9.597827
    41  H    5.026888   6.321982   6.768644   7.398589   8.145512
    42  H    5.194985   6.508843   7.598107   6.949522   8.882179
    43  H    6.270860   7.659075   8.626379   8.255666   9.975890
    44  H    5.194936   6.508770   7.598036   6.949421   8.882085
    45  H    5.034486   6.335740   7.061619   7.150761   8.395155
    46  H    5.026996   6.322127   6.768794   7.398763   8.145694
    47  H    6.176881   7.553403   8.211257   8.455401   9.597967
    48  H    6.335752   5.034496   4.645732   4.506524   3.577237
    49  H    6.322131   5.026998   5.038342   4.056191   4.083500
    50  H    7.553408   6.176885   5.809006   5.446864   4.568826
                   11         12         13         14         15
    11  C    0.000000
    12  C    1.414144   0.000000
    13  H    7.009346   7.207592   0.000000
    14  C    5.058298   4.888987   2.647725   0.000000
    15  C    3.716041   4.887729   5.292139   4.859318   0.000000
    16  C    7.998359   8.629658   2.745673   4.992537   5.038841
    17  H    6.205198   7.196045   4.328663   5.292084   2.633240
    18  H    1.082319   2.169120   7.944033   6.109555   4.041291
    19  C    2.555759   1.544923   8.704722   6.294043   6.257163
    20  C    4.210042   3.741075   4.041290   1.398300   5.056660
    21  H    3.418148   2.181115   6.652537   4.027016   6.106609
    22  C    2.438327   3.739217   6.109558   5.056343   1.398300
    23  H    4.579849   5.841088   5.926392   5.831108   1.083543
    24  H    2.684742   4.095194   7.171971   6.117176   2.144348
    25  H    6.111573   5.843001   2.434616   1.083564   5.830726
    26  H    4.856794   4.098446   4.716627   2.143909   6.117662
    27  C    3.892845   2.580278   9.104789   6.524018   7.466994
    28  C    3.071327   2.522503   9.472920   7.168017   6.611265
    29  C    3.071326   2.522480   9.472694   7.167850   6.611173
    30  C    8.549076   9.377380   4.260191   6.301828   5.149888
    31  C    8.718721   9.243293   2.918689   5.301257   5.981338
    32  C    8.718537   9.243102   2.918727   5.301215   5.981223
    33  H    3.395678   2.772353   9.168688   6.872614   6.684472
    34  H    4.101993   3.499958  10.540312   8.180490   7.666849
    35  H    2.791854   2.792913   9.513022   7.395280   6.073152
    36  H    4.197978   2.857707   8.826016   6.228825   7.587136
    37  H    4.740778   3.542154  10.216506   7.631648   8.406760
    38  H    4.197989   2.857705   8.825862   6.228707   7.587094
    39  H    8.467742   9.049812   3.460223   5.480480   5.708594
    40  H    9.804564  10.346885   3.829169   6.330118   6.943481
    41  H    8.671401   9.029906   2.301074   4.725724   6.335706
    42  H    8.335533   9.235254   4.691617   6.506963   4.855480
    43  H    9.657179  10.466201   4.915742   7.178364   6.252908
    44  H    8.335411   9.235132   4.691639   6.506948   4.855396
    45  H    8.468086   9.050166   3.460178   5.480564   5.708819
    46  H    8.671607   9.030122   2.301037   4.725787   6.335830
    47  H    9.804728  10.347058   3.829139   6.330155   6.943576
    48  H    3.395692   2.772404   9.169102   6.872926   6.684638
    49  H    2.791867   2.792941   9.513265   7.395456   6.073268
    50  H    4.101994   3.499974  10.540518   8.180638   7.666930
                   16         17         18         19         20
    16  C    0.000000
    17  H    2.834571   0.000000
    18  H    8.704729   6.652535   0.000000
    19  C   10.174194   8.669600   2.745666   0.000000
    20  C    6.257169   6.106607   5.292135   5.038835   0.000000
    21  H    8.669609   7.929655   4.328660   2.834566   2.633242
    22  C    6.294050   4.027014   2.647726   4.992531   4.859318
    23  H    5.163291   2.419778   4.716631   7.135291   6.117655
    24  H    7.180804   4.701958   2.434615   5.099396   5.830723
    25  H    5.099406   5.928067   7.171968   7.180796   2.144347
    26  H    7.135298   7.169329   5.926397   5.163294   1.083549
    27  C   10.902003   9.717705   4.260178   1.547906   5.149894
    28  C   10.773767   9.093448   2.918680   1.544300   5.981353
    29  C   10.773518   9.093282   2.918728   1.544314   5.981214
    30  C    1.547914   2.549187   9.104785  10.901994   7.466997
    31  C    1.544303   3.930605   9.472905  10.773749   6.611262
    32  C    1.544301   3.930550   9.472701  10.773519   6.611176
    33  H   10.555816   9.032767   3.460222   2.194295   5.708578
    34  H   11.879637  10.178670   3.829164   2.199455   6.943468
    35  H   10.540681   8.627530   2.301075   2.211163   6.335693
    36  H   10.735497   9.716364   4.691610   2.205160   4.855495
    37  H   11.995521  10.733342   4.915735   2.202801   6.252914
    38  H   10.735336   9.716269   4.691640   2.205169   4.855392
    39  H    2.194288   3.785946   9.168703  10.555823   6.684479
    40  H    2.199448   4.694838  10.540325  11.879643   7.666857
    41  H    2.211157   4.609163   9.513034  10.540686   6.073159
    42  H    2.205164   2.321144   8.826004  10.735480   7.587133
    43  H    2.202797   3.636298  10.216502  11.995510   8.406760
    44  H    2.205168   2.321099   8.825864  10.735329   7.587090
    45  H    2.194297   3.786057   9.169084  10.556246   6.684639
    46  H    2.211161   4.609219   9.513258  10.540944   6.073270
    47  H    2.199438   4.694875  10.540508  11.879854   7.666933
    48  H   10.556265   9.033066   3.460163   2.194293   5.708842
    49  H   10.540956   8.627725   2.301024   2.211154   6.335837
    50  H   11.879867  10.178822   3.829127   2.199445   6.943590
                   21         22         23         24         25
    21  H    0.000000
    22  C    5.292086   0.000000
    23  H    7.169328   2.143909   0.000000
    24  H    5.928065   1.083563   2.448116   0.000000
    25  H    4.701958   6.117179   6.755167   7.184799   0.000000
    26  H    2.419787   5.831116   7.185389   6.755172   2.448109
    27  C    2.549192   6.301823   8.417954   6.540070   7.247800
    28  C    3.930618   5.301258   7.387812   5.220905   8.077955
    29  C    3.930545   5.301213   7.387727   5.220902   8.077771
    30  C    9.717709   6.524013   4.944221   7.247795   6.540081
    31  C    9.093444   7.168003   6.159172   8.077940   5.220912
    32  C    9.093290   7.167858   6.159065   8.077781   5.220906
    33  H    3.785934   5.480475   7.496171   5.527124   7.729590
    34  H    4.694827   6.330111   8.409797   6.161734   9.058202
    35  H    4.609155   4.725718   6.736543   4.461654   8.375172
    36  H    2.321158   6.506965   8.570343   6.840674   6.882688
    37  H    3.636302   7.178363   9.316348   7.298942   8.338087
    38  H    2.321089   6.506952   8.570305   6.840684   6.882553
    39  H    9.032779   6.872629   5.840170   7.729606   5.527130
    40  H   10.178683   8.180503   7.021237   9.058216   6.161743
    41  H    8.627542   7.395293   6.683807   8.375186   4.461660
    42  H    9.716360   6.228812   4.551865   6.882675   6.840680
    43  H   10.733343   7.631643   6.000673   8.338083   7.298949
    44  H    9.716269   6.228710   4.551781   6.882559   6.840683
    45  H    9.033064   6.872906   5.840379   7.729910   5.527152
    46  H    8.627726   7.395450   6.683919   8.375356   4.461681
    47  H   10.178824   8.180626   7.021325   9.058355   6.161750
    48  H    3.786079   5.480561   7.496325   5.527138   7.729931
    49  H    4.609224   4.725784   6.736653   4.461671   8.375363
    50  H    4.694889   6.330150   8.409873   6.161737   9.058368
                   26         27         28         29         30
    26  H    0.000000
    27  C    4.944237   0.000000
    28  C    6.159197   2.495009   0.000000
    29  C    6.159065   2.495010   2.523304   0.000000
    30  C    8.417960  11.789189  11.400401  11.400163   0.000000
    31  C    7.387811  11.400394  11.271071  11.549801   2.495018
    32  C    7.387728  11.400173  11.549817  11.270538   2.495015
    33  H    5.840161   2.760370   3.497120   1.111554  11.240807
    34  H    7.021232   2.715042   2.775534   1.111696  12.503083
    35  H    6.683803   3.485656   2.791605   1.109632  11.026358
    36  H    4.551889   1.111547   2.746882   3.481012  11.688175
    37  H    6.000686   1.111873   2.733423   2.733433  12.854721
    38  H    4.551779   1.111546   3.481012   2.746879  11.688027
    39  H    7.496176  11.240822  11.399510  10.906369   2.760372
    40  H    8.409803  12.503098  12.636174  12.377310   2.715052
    41  H    6.736547  11.026374  11.388974  11.096877   3.485664
    42  H    8.570344  11.688166  11.087858  11.291935   1.111544
    43  H    9.316350  12.854719  12.498731  12.498467   1.111873
    44  H    8.570302  11.688025  11.291983  11.087464   1.111546
    45  H    7.496330  11.241225  10.907105  11.399722   2.760380
    46  H    6.736655  11.026625  11.097445  11.388978   3.485666
    47  H    8.409878  12.503304  12.377846  12.636115   2.715040
    48  H    5.840414   2.760378   1.111562   3.497133  11.241233
    49  H    6.683936   3.485651   1.109626   2.791605  11.026625
    50  H    7.021350   2.715039   1.111696   2.775533  12.503304
                   31         32         33         34         35
    31  C    0.000000
    32  C    2.523305   0.000000
    33  H   11.399490  10.906366   0.000000
    34  H   12.636154  12.377305   1.801834   0.000000
    35  H   11.388953  11.096872   1.799098   1.789306   0.000000
    36  H   11.087858  11.291952   3.790570   3.742474   4.368937
    37  H   12.498725  12.498479   3.115886   2.479356   3.750817
    38  H   11.291974  11.087474   2.544324   3.059687   3.791529
    39  H    3.497126   1.111560  10.487202  12.011361  10.684241
    40  H    2.775541   1.111701  12.011363  13.484828  12.189167
    41  H    2.791608   1.109634  10.684242  12.189167  11.032354
    42  H    2.746881   3.481010  11.241270  12.377463  10.872861
    43  H    2.733432   2.733427  12.319122  13.603157  12.130799
    44  H    3.481016   2.746871  10.884292  12.188214  10.653791
    45  H    1.111558   3.497128  11.356726  12.468095  11.202415
    46  H    1.109629   2.791608  11.202201  12.459891  11.334977
    47  H    1.111702   2.775527  12.467808  13.726530  12.459825
    48  H   10.907105  11.399739   4.357117   3.796681   3.816721
    49  H   11.097438  11.388986   3.816710   3.141193   2.600472
    50  H   12.377841  12.636126   3.796671   2.563195   3.141198
                   36         37         38         39         40
    36  H    0.000000
    37  H    1.792101   0.000000
    38  H    1.811948   1.792097   0.000000
    39  H   11.241292  12.319139  10.884309   0.000000
    40  H   12.377485  13.603174  12.188230   1.801842   0.000000
    41  H   10.872883  12.130816  10.653806   1.799105   1.789307
    42  H   11.551156  12.733132  11.692274   3.790569   3.742478
    43  H   12.733139  13.927498  12.732972   3.115878   2.479353
    44  H   11.692282  12.732973  11.550895   2.544311   3.059686
    45  H   10.884848  12.319587  11.241494   4.357118   3.796682
    46  H   10.654230  12.131093  10.872924   3.816721   3.141200
    47  H   12.188616  13.603404  12.377476   3.796669   2.563190
    48  H    2.544334   3.115879   3.790585  11.356749  12.468117
    49  H    3.791527   3.750803   4.368937  11.202214  12.459904
    50  H    3.059696   2.479344   3.742467  12.467824  13.726546
                   41         42         43         44         45
    41  H    0.000000
    42  H    4.368937   0.000000
    43  H    3.750815   1.792105   0.000000
    44  H    3.791524   1.811958   1.792095   0.000000
    45  H    3.816722   2.544328   3.115882   3.790586   0.000000
    46  H    2.600476   3.791532   3.750814   4.368943   1.799104
    47  H    3.141196   3.059691   2.479343   3.742463   1.801836
    48  H   11.202439  10.884848  12.319594  11.241504  10.488119
    49  H   11.334991  10.654225  12.131093  10.872928  10.685017
    50  H   12.459842  12.188609  13.603404  12.377478  12.012117
                   46         47         48         49         50
    46  H    0.000000
    47  H    1.789302   0.000000
    48  H   10.685025  12.012123   0.000000
    49  H   11.032949  12.189735   1.799099   0.000000
    50  H   12.189738  13.485368   1.801835   1.789294   0.000000
 Stoichiometry    C24H26
 Framework group  C1[X(C24H26)]
 Deg. of freedom   144
 Full point group                 C1      NOp   1
 Largest Abelian subgroup         C1      NOp   1
 Largest concise Abelian subgroup C1      NOp   1
                         Standard orientation:                         
 ---------------------------------------------------------------------
 Center     Atomic      Atomic             Coordinates (Angstroms)
 Number     Number       Type             X           Y           Z
 ---------------------------------------------------------------------
      1          6           0       -3.542475   -0.034005   -0.000024
      2          6           0       -2.801960   -1.241487   -0.000083
      3          6           0       -2.823624    1.183807   -0.000059
      4          6           0       -1.422271    1.205434   -0.000118
      5          6           0       -1.399011   -1.233778   -0.000125
      6          6           0       -0.706203   -0.007082   -0.000135
      7          6           0        0.706202    0.007083   -0.000137
      8          6           0        1.399012    1.233782   -0.000123
      9          6           0        1.422277   -1.205422   -0.000115
     10          6           0        2.801960    1.241494   -0.000087
     11          6           0        2.823625   -1.183805   -0.000068
     12          6           0        3.542479    0.034002   -0.000028
     13          1           0       -3.354541    2.126966   -0.000024
     14          6           0       -0.723359    2.422479   -0.000136
     15          6           0       -0.674871   -2.436597   -0.000137
     16          6           0       -5.087100   -0.003049    0.000110
     17          1           0       -3.297579   -2.201323   -0.000062
     18          1           0        3.354541   -2.126961   -0.000025
     19          6           0        5.087092    0.003050    0.000104
     20          6           0        0.674870    2.436597   -0.000135
     21          1           0        3.297580    2.201325   -0.000065
     22          6           0        0.723358   -2.422479   -0.000136
     23          1           0       -1.189851   -3.389939   -0.000137
     24          1           0        1.258137   -3.364879   -0.000124
     25          1           0       -1.258135    3.364883   -0.000124
     26          1           0        1.189846    3.389948   -0.000132
     27          6           0        5.722337    1.414601    0.000111
     28          6           0        5.587571   -0.733739   -1.261452
     29          6           0        5.587307   -0.733620    1.261851
     30          6           0       -5.722335   -1.414613    0.000121
     31          6           0       -5.587562    0.733723   -1.261467
     32          6           0       -5.587316    0.733628    1.261837
     33          1           0        5.239376   -0.210262    2.178690
     34          1           0        6.698198   -0.770833    1.281916
     35          1           0        5.220973   -1.780326    1.300445
     36          1           0        5.423716    1.985104   -0.905919
     37          1           0        6.832172    1.347306    0.000222
     38          1           0        5.423546    1.985188    0.906030
     39          1           0       -5.239390    0.210275    2.178688
     40          1           0       -6.698213    0.770843    1.281897
     41          1           0       -5.220987    1.780338    1.300426
     42          1           0       -5.423706   -1.985115   -0.905902
     43          1           0       -6.832169   -1.347314    0.000234
     44          1           0       -5.423545   -1.985177    0.906055
     45          1           0       -5.239830    0.210441   -2.178429
     46          1           0       -5.221255    1.780436   -1.300050
     47          1           0       -6.698464    0.770929   -1.281293
     48          1           0        5.239840   -0.210470   -2.178427
     49          1           0        5.221259   -1.780447   -1.300027
     50          1           0        6.698467   -0.770953   -1.281279
 ---------------------------------------------------------------------
 Rotational constants (GHZ):           0.7104935           0.1124445           0.1014569
 Standard basis: 6-31G(d) (6D, 7F)
 There are   412 symmetry adapted cartesian basis functions of A   symmetry.
 There are   412 symmetry adapted basis functions of A   symmetry.
   412 basis functions,   776 primitive gaussians,   412 cartesian basis functions
    85 alpha electrons       85 beta electrons
       nuclear repulsion energy      1943.2561839303 Hartrees.
 NAtoms=   50 NActive=   50 NUniq=   50 SFac= 1.00D+00 NAtFMM=   60 NAOKFM=F Big=F
 Integral buffers will be    131072 words long.
 Raffenetti 2 integral format.
 Two-electron integral symmetry is turned on.
 One-electron integrals computed using PRISM.
 NBasis=   412 RedAO= T EigKep=  1.42D-04  NBF=   412
 NBsUse=   412 1.00D-06 EigRej= -1.00D+00 NBFU=   412
 ExpMin= 1.61D-01 ExpMax= 3.05D+03 ExpMxC= 4.57D+02 IAcc=3 IRadAn=         5 AccDes= 0.00D+00
 Harris functional with IExCor=  402 and IRadAn=       5 diagonalized for initial guess.
 HarFok:  IExCor=  402 AccDes= 0.00D+00 IRadAn=         5 IDoV= 1 UseB2=F ITyADJ=14
 ICtDFT=  3500011 ScaDFX=  1.000000  1.000000  1.000000  1.000000
 FoFCou: FMM=F IPFlag=           0 FMFlag=      100000 FMFlg1=           0
         NFxFlg=           0 DoJE=T BraDBF=F KetDBF=T FulRan=T
         wScrn=  0.000000 ICntrl=       500 IOpCl=  0 I1Cent=   200000004 NGrid=           0
         NMat0=    1 NMatS0=      1 NMatT0=    0 NMatD0=    1 NMtDS0=    0 NMtDT0=    0
 Petite list used in FoFCou.
 Requested convergence on RMS density matrix=1.00D-08 within 128 cycles.
 Requested convergence on MAX density matrix=1.00D-06.
 Requested convergence on             energy=1.00D-06.
 No special actions if energy rises.
 Integral accuracy reduced to 1.0D-05 until final iterations.
 Initial convergence to 1.0D-05 achieved.  Increase integral accuracy.
 SCF Done:  E(RB3LYP) =  -930.271394313     A.U. after   14 cycles
            NFock= 14  Conv=0.44D-08     -V/T= 2.0100

 **********************************************************************

            Population analysis using the SCF Density.

 **********************************************************************

 Orbital symmetries:
       Occupied  (A) (A) (A) (A) (A) (A) (A) (A) (A) (A) (A) (A)
                 (A) (A) (A) (A) (A) (A) (A) (A) (A) (A) (A) (A)
                 (A) (A) (A) (A) (A) (A) (A) (A) (A) (A) (A) (A)
                 (A) (A) (A) (A) (A) (A) (A) (A) (A) (A) (A) (A)
                 (A) (A) (A) (A) (A) (A) (A) (A) (A) (A) (A) (A)
                 (A) (A) (A) (A) (A) (A) (A) (A) (A) (A) (A) (A)
                 (A) (A) (A) (A) (A) (A) (A) (A) (A) (A) (A) (A)
                 (A)
       Virtual   (A) (A) (A) (A) (A) (A) (A) (A) (A) (A) (A) (A)
                 (A) (A) (A) (A) (A) (A) (A) (A) (A) (A) (A) (A)
                 (A) (A) (A) (A) (A) (A) (A) (A) (A) (A) (A) (A)
                 (A) (A) (A) (A) (A) (A) (A) (A) (A) (A) (A) (A)
                 (A) (A) (A) (A) (A) (A) (A) (A) (A) (A) (A) (A)
                 (A) (A) (A) (A) (A) (A) (A) (A) (A) (A) (A) (A)
                 (A) (A) (A) (A) (A) (A) (A) (A) (A) (A) (A) (A)
                 (A) (A) (A) (A) (A) (A) (A) (A) (A) (A) (A) (A)
                 (A) (A) (A) (A) (A) (A) (A) (A) (A) (A) (A) (A)
                 (A) (A) (A) (A) (A) (A) (A) (A) (A) (A) (A) (A)
                 (A) (A) (A) (A) (A) (A) (A) (A) (A) (A) (A) (A)
                 (A) (A) (A) (A) (A) (A) (A) (A) (A) (A) (A) (A)
                 (A) (A) (A) (A) (A) (A) (A) (A) (A) (A) (A) (A)
                 (A) (A) (A) (A) (A) (A) (A) (A) (A) (A) (A) (A)
                 (A) (A) (A) (A) (A) (A) (A) (A) (A) (A) (A) (A)
                 (A) (A) (A) (A) (A) (A) (A) (A) (A) (A) (A) (A)
                 (A) (A) (A) (A) (A) (A) (A) (A) (A) (A) (A) (A)
                 (A) (A) (A) (A) (A) (A) (A) (A) (A) (A) (A) (A)
                 (A) (A) (A) (A) (A) (A) (A) (A) (A) (A) (A) (A)
                 (A) (A) (A) (A) (A) (A) (A) (A) (A) (A) (A) (A)
                 (A) (A) (A) (A) (A) (A) (A) (A) (A) (A) (A) (A)
                 (A) (A) (A) (A) (A) (A) (A) (A) (A) (A) (A) (A)
                 (A) (A) (A) (A) (A) (A) (A) (A) (A) (A) (A) (A)
                 (A) (A) (A) (A) (A) (A) (A) (A) (A) (A) (A) (A)
                 (A) (A) (A) (A) (A) (A) (A) (A) (A) (A) (A) (A)
                 (A) (A) (A) (A) (A) (A) (A) (A) (A) (A) (A) (A)
                 (A) (A) (A) (A) (A) (A) (A) (A) (A) (A) (A) (A)
                 (A) (A) (A)
 The electronic state is 1-A.
 Alpha  occ. eigenvalues --  -10.20349 -10.20349 -10.19474 -10.19474 -10.18883
 Alpha  occ. eigenvalues --  -10.18883 -10.18848 -10.18847 -10.18716 -10.18715
 Alpha  occ. eigenvalues --  -10.18686 -10.18661 -10.18661 -10.18640 -10.18345
 Alpha  occ. eigenvalues --  -10.18345 -10.18342 -10.18342 -10.17835 -10.17835
 Alpha  occ. eigenvalues --  -10.17704 -10.17704 -10.17704 -10.17704  -0.89215
 Alpha  occ. eigenvalues --   -0.85262  -0.82772  -0.82700  -0.80724  -0.76535
 Alpha  occ. eigenvalues --   -0.76522  -0.73970  -0.71392  -0.70247  -0.68055
 Alpha  occ. eigenvalues --   -0.67832  -0.67832  -0.67433  -0.62618  -0.62494
 Alpha  occ. eigenvalues --   -0.61986  -0.60308  -0.57422  -0.53857  -0.51686
 Alpha  occ. eigenvalues --   -0.51375  -0.49964  -0.49817  -0.48338  -0.47117
 Alpha  occ. eigenvalues --   -0.44943  -0.44350  -0.43533  -0.43488  -0.43074
 Alpha  occ. eigenvalues --   -0.42480  -0.41757  -0.40917  -0.40841  -0.40806
 Alpha  occ. eigenvalues --   -0.39631  -0.38968  -0.38799  -0.38743  -0.38515
 Alpha  occ. eigenvalues --   -0.37304  -0.37204  -0.36158  -0.36127  -0.36114
 Alpha  occ. eigenvalues --   -0.35503  -0.35029  -0.33699  -0.33119  -0.33058
 Alpha  occ. eigenvalues --   -0.32602  -0.32321  -0.31416  -0.31057  -0.30617
 Alpha  occ. eigenvalues --   -0.27488  -0.27026  -0.24572  -0.21857  -0.18585
 Alpha virt. eigenvalues --   -0.05526  -0.01562  -0.00244   0.02802   0.05655
 Alpha virt. eigenvalues --    0.08104   0.08116   0.10587   0.11474   0.11636
 Alpha virt. eigenvalues --    0.12346   0.12394   0.12988   0.13289   0.14059
 Alpha virt. eigenvalues --    0.14254   0.14489   0.14908   0.15281   0.15946
 Alpha virt. eigenvalues --    0.15994   0.16222   0.17200   0.17962   0.18520
 Alpha virt. eigenvalues --    0.18659   0.19085   0.19735   0.19996   0.21575
 Alpha virt. eigenvalues --    0.21689   0.21781   0.22042   0.22748   0.22752
 Alpha virt. eigenvalues --    0.22930   0.24531   0.24670   0.25058   0.26584
 Alpha virt. eigenvalues --    0.27026   0.27392   0.27618   0.28728   0.29356
 Alpha virt. eigenvalues --    0.30394   0.32625   0.33096   0.33321   0.36276
 Alpha virt. eigenvalues --    0.37280   0.37990   0.39775   0.46033   0.47613
 Alpha virt. eigenvalues --    0.48120   0.49753   0.50043   0.50561   0.50981
 Alpha virt. eigenvalues --    0.51007   0.51021   0.51603   0.52052   0.52272
 Alpha virt. eigenvalues --    0.53565   0.53944   0.54546   0.54624   0.54999
 Alpha virt. eigenvalues --    0.55373   0.56996   0.57441   0.58087   0.58520
 Alpha virt. eigenvalues --    0.58708   0.58795   0.59879   0.60161   0.60458
 Alpha virt. eigenvalues --    0.60649   0.60797   0.61568   0.62095   0.62796
 Alpha virt. eigenvalues --    0.63143   0.63291   0.64467   0.64595   0.64953
 Alpha virt. eigenvalues --    0.66769   0.67699   0.68378   0.68966   0.69556
 Alpha virt. eigenvalues --    0.71337   0.72223   0.72260   0.72286   0.75908
 Alpha virt. eigenvalues --    0.76132   0.78153   0.78461   0.79213   0.81190
 Alpha virt. eigenvalues --    0.81251   0.81257   0.82203   0.82321   0.83380
 Alpha virt. eigenvalues --    0.83969   0.84149   0.85217   0.85278   0.86088
 Alpha virt. eigenvalues --    0.86370   0.86592   0.87720   0.88267   0.88668
 Alpha virt. eigenvalues --    0.89226   0.89496   0.91435   0.91534   0.91597
 Alpha virt. eigenvalues --    0.91615   0.91636   0.92126   0.92178   0.92288
 Alpha virt. eigenvalues --    0.92600   0.93755   0.93981   0.95216   0.96297
 Alpha virt. eigenvalues --    0.96448   0.96699   0.97674   0.98125   0.98297
 Alpha virt. eigenvalues --    0.98682   0.98775   0.99183   0.99592   1.00332
 Alpha virt. eigenvalues --    1.02828   1.04082   1.06178   1.06932   1.09064
 Alpha virt. eigenvalues --    1.09302   1.12422   1.14442   1.15595   1.16038
 Alpha virt. eigenvalues --    1.17316   1.18505   1.22312   1.22614   1.23451
 Alpha virt. eigenvalues --    1.23678   1.25924   1.27644   1.28696   1.29447
 Alpha virt. eigenvalues --    1.31224   1.31970   1.34474   1.34747   1.38278
 Alpha virt. eigenvalues --    1.39607   1.40141   1.42851   1.42911   1.46201
 Alpha virt. eigenvalues --    1.46776   1.46987   1.47635   1.47926   1.48363
 Alpha virt. eigenvalues --    1.49446   1.51491   1.52426   1.52920   1.54496
 Alpha virt. eigenvalues --    1.56594   1.56806   1.58436   1.59974   1.60812
 Alpha virt. eigenvalues --    1.66156   1.66228   1.66395   1.68869   1.73112
 Alpha virt. eigenvalues --    1.73128   1.73715   1.74961   1.75998   1.77720
 Alpha virt. eigenvalues --    1.77787   1.80037   1.81443   1.83885   1.84541
 Alpha virt. eigenvalues --    1.85383   1.86273   1.86562   1.86967   1.87483
 Alpha virt. eigenvalues --    1.87620   1.87927   1.90261   1.90296   1.92910
 Alpha virt. eigenvalues --    1.93592   1.95148   1.96288   1.96409   1.96975
 Alpha virt. eigenvalues --    1.97013   1.97637   1.99291   2.00487   2.02256
 Alpha virt. eigenvalues --    2.03407   2.04004   2.07149   2.07922   2.08009
 Alpha virt. eigenvalues --    2.08185   2.08877   2.09965   2.11637   2.13240
 Alpha virt. eigenvalues --    2.15603   2.15661   2.16989   2.17212   2.20253
 Alpha virt. eigenvalues --    2.21186   2.21866   2.22508   2.22695   2.22843
 Alpha virt. eigenvalues --    2.23461   2.24035   2.24616   2.24693   2.26442
 Alpha virt. eigenvalues --    2.26678   2.26975   2.27395   2.28172   2.29047
 Alpha virt. eigenvalues --    2.30469   2.30903   2.33231   2.33262   2.35142
 Alpha virt. eigenvalues --    2.36420   2.37930   2.38731   2.39116   2.39588
 Alpha virt. eigenvalues --    2.42808   2.45899   2.49242   2.49634   2.50708
 Alpha virt. eigenvalues --    2.51361   2.55733   2.56751   2.57541   2.61455
 Alpha virt. eigenvalues --    2.64706   2.69065   2.70079   2.70383   2.71171
 Alpha virt. eigenvalues --    2.71246   2.72471   2.73579   2.75780   2.79325
 Alpha virt. eigenvalues --    2.79631   2.81133   2.83008   2.86010   2.89214
 Alpha virt. eigenvalues --    2.91347   2.91936   2.93328   2.96312   2.98904
 Alpha virt. eigenvalues --    3.02292   3.04515   3.10515   3.13163   3.27076
 Alpha virt. eigenvalues --    3.36357   3.55918   3.58295   4.10272   4.10451
 Alpha virt. eigenvalues --    4.12205   4.12938   4.14540   4.15555   4.15733
 Alpha virt. eigenvalues --    4.17056   4.20135   4.21678   4.25412   4.30145
 Alpha virt. eigenvalues --    4.30148   4.31774   4.32113   4.35292   4.39510
 Alpha virt. eigenvalues --    4.40965   4.49279   4.58149   4.63891   4.70211
 Alpha virt. eigenvalues --    4.74889   4.97099
          Condensed to atoms (all electrons):
               1          2          3          4          5          6
     1  C    4.800834   0.465680   0.442835   0.015206   0.012994  -0.044476
     2  C    0.465680   5.325515  -0.035113  -0.070865   0.413716  -0.020088
     3  C    0.442835  -0.035113   5.335818   0.426304  -0.073709  -0.020170
     4  C    0.015206  -0.070865   0.426304   4.850562  -0.059759   0.391724
     5  C    0.012994   0.413716  -0.073709  -0.059759   4.865591   0.394782
     6  C   -0.044476  -0.020088  -0.020170   0.391724   0.394782   5.283359
     7  C   -0.001945   0.020173   0.020787  -0.054265  -0.055521   0.218945
     8  C    0.000008  -0.000136  -0.000501  -0.051508   0.015753  -0.055519
     9  C    0.000018  -0.000485  -0.000156   0.015585  -0.051508  -0.054269
    10  C    0.000000  -0.000001  -0.000013  -0.000485  -0.000136   0.020173
    11  C    0.000000  -0.000013  -0.000001  -0.000156  -0.000501   0.020787
    12  C    0.000000   0.000000   0.000000   0.000018   0.000008  -0.001945
    13  H   -0.047807   0.004912   0.347909  -0.038155   0.000718   0.004045
    14  C    0.007622  -0.000006  -0.105337   0.385851   0.017967   0.013918
    15  C    0.008020  -0.100905  -0.000009   0.017538   0.387321   0.010620
    16  C    0.366890  -0.039651  -0.048491   0.002838   0.003779   0.001545
    17  H   -0.039675   0.351173   0.005337   0.000624  -0.046864   0.004050
    18  H   -0.000000  -0.000000  -0.000000   0.000003   0.000011  -0.000213
    19  C    0.000000  -0.000000  -0.000000  -0.000000  -0.000000   0.000017
    20  C   -0.000324   0.000075   0.009320   0.017459  -0.001969  -0.087960
    21  H   -0.000000  -0.000000  -0.000000   0.000002   0.000004  -0.000187
    22  C   -0.000327   0.009104   0.000080  -0.001954   0.016887  -0.088922
    23  H    0.000152  -0.008356   0.000012  -0.000224  -0.035947   0.003593
    24  H    0.000003  -0.000231  -0.000000   0.000027   0.001744   0.001436
    25  H    0.000152   0.000011  -0.008272  -0.036299  -0.000223   0.003567
    26  H    0.000003  -0.000000  -0.000234   0.001703   0.000027   0.001451
    27  C   -0.000000   0.000000   0.000000   0.000000  -0.000000  -0.000000
    28  C   -0.000000   0.000000  -0.000000  -0.000000   0.000000  -0.000000
    29  C   -0.000000   0.000000  -0.000000  -0.000000   0.000000  -0.000000
    30  C   -0.044336  -0.010434   0.004973  -0.000144   0.000464  -0.000003
    31  C   -0.052462   0.000582  -0.006787   0.000317  -0.000179   0.000005
    32  C   -0.052465   0.000581  -0.006788   0.000317  -0.000179   0.000005
    33  H   -0.000000  -0.000000   0.000000   0.000000   0.000000  -0.000000
    34  H   -0.000000  -0.000000  -0.000000   0.000000  -0.000000   0.000000
    35  H   -0.000000   0.000000   0.000000   0.000000   0.000000  -0.000000
    36  H   -0.000000   0.000000   0.000000   0.000000  -0.000000  -0.000000
    37  H   -0.000000  -0.000000  -0.000000  -0.000000   0.000000  -0.000000
    38  H   -0.000000   0.000000   0.000000   0.000000  -0.000000  -0.000000
    39  H   -0.002253   0.000951  -0.000001  -0.000032   0.000000  -0.000015
    40  H    0.005225  -0.000039   0.000123  -0.000001   0.000002   0.000000
    41  H   -0.008167  -0.000230   0.003926   0.000123   0.000015  -0.000002
    42  H   -0.006084   0.001829  -0.000142   0.000004   0.000084   0.000000
    43  H    0.003947   0.000312  -0.000074   0.000002  -0.000003  -0.000000
    44  H   -0.006084   0.001829  -0.000142   0.000004   0.000084   0.000000
    45  H   -0.002253   0.000950  -0.000001  -0.000032   0.000000  -0.000015
    46  H   -0.008166  -0.000230   0.003925   0.000123   0.000015  -0.000002
    47  H    0.005224  -0.000039   0.000123  -0.000001   0.000002   0.000000
    48  H   -0.000000  -0.000000   0.000000   0.000000   0.000000  -0.000000
    49  H   -0.000000   0.000000   0.000000   0.000000   0.000000  -0.000000
    50  H   -0.000000  -0.000000  -0.000000   0.000000  -0.000000   0.000000
               7          8          9         10         11         12
     1  C   -0.001945   0.000008   0.000018   0.000000   0.000000   0.000000
     2  C    0.020173  -0.000136  -0.000485  -0.000001  -0.000013   0.000000
     3  C    0.020787  -0.000501  -0.000156  -0.000013  -0.000001   0.000000
     4  C   -0.054265  -0.051508   0.015585  -0.000485  -0.000156   0.000018
     5  C   -0.055521   0.015753  -0.051508  -0.000136  -0.000501   0.000008
     6  C    0.218945  -0.055519  -0.054269   0.020173   0.020787  -0.001945
     7  C    5.283358   0.394783   0.391727  -0.020092  -0.020175  -0.044474
     8  C    0.394783   4.865585  -0.059758   0.413720  -0.073707   0.012994
     9  C    0.391727  -0.059758   4.850574  -0.070866   0.426306   0.015207
    10  C   -0.020092   0.413720  -0.070866   5.325516  -0.035115   0.465678
    11  C   -0.020175  -0.073707   0.426306  -0.035115   5.335811   0.442838
    12  C   -0.044474   0.012994   0.015207   0.465678   0.442838   4.800832
    13  H   -0.000213   0.000011   0.000003  -0.000000  -0.000000  -0.000000
    14  C   -0.088924   0.016886  -0.001954   0.009104   0.000080  -0.000327
    15  C   -0.087959  -0.001968   0.017456   0.000075   0.009320  -0.000324
    16  C    0.000017  -0.000000  -0.000000  -0.000000  -0.000000   0.000000
    17  H   -0.000187   0.000004   0.000002  -0.000000  -0.000000  -0.000000
    18  H    0.004045   0.000718  -0.038154   0.004912   0.347909  -0.047807
    19  C    0.001545   0.003779   0.002838  -0.039651  -0.048492   0.366891
    20  C    0.010623   0.387318   0.017539  -0.100906  -0.000008   0.008020
    21  H    0.004050  -0.046864   0.000624   0.351174   0.005337  -0.039675
    22  C    0.013920   0.017966   0.385849  -0.000006  -0.105334   0.007622
    23  H    0.001451   0.000027   0.001703  -0.000000  -0.000234   0.000003
    24  H    0.003567  -0.000223  -0.036299   0.000011  -0.008272   0.000152
    25  H    0.001436   0.001744   0.000027  -0.000231  -0.000000   0.000003
    26  H    0.003593  -0.035947  -0.000224  -0.008356   0.000012   0.000152
    27  C   -0.000003   0.000464  -0.000144  -0.010434   0.004974  -0.044336
    28  C    0.000005  -0.000179   0.000317   0.000582  -0.006787  -0.052461
    29  C    0.000005  -0.000179   0.000316   0.000581  -0.006788  -0.052465
    30  C   -0.000000  -0.000000   0.000000   0.000000   0.000000  -0.000000
    31  C   -0.000000   0.000000  -0.000000   0.000000  -0.000000  -0.000000
    32  C   -0.000000   0.000000  -0.000000   0.000000  -0.000000  -0.000000
    33  H   -0.000015   0.000000  -0.000032   0.000951  -0.000001  -0.002253
    34  H    0.000000   0.000002  -0.000001  -0.000039   0.000123   0.005224
    35  H   -0.000002   0.000015   0.000123  -0.000230   0.003926  -0.008166
    36  H    0.000000   0.000084   0.000004   0.001829  -0.000142  -0.006084
    37  H   -0.000000  -0.000003   0.000002   0.000312  -0.000074   0.003947
    38  H    0.000000   0.000084   0.000004   0.001829  -0.000142  -0.006084
    39  H   -0.000000   0.000000   0.000000  -0.000000   0.000000  -0.000000
    40  H    0.000000  -0.000000   0.000000  -0.000000  -0.000000  -0.000000
    41  H   -0.000000   0.000000   0.000000   0.000000   0.000000  -0.000000
    42  H   -0.000000  -0.000000   0.000000   0.000000   0.000000  -0.000000
    43  H   -0.000000   0.000000  -0.000000  -0.000000  -0.000000  -0.000000
    44  H   -0.000000  -0.000000   0.000000   0.000000   0.000000  -0.000000
    45  H   -0.000000   0.000000   0.000000  -0.000000   0.000000  -0.000000
    46  H   -0.000000   0.000000   0.000000   0.000000   0.000000  -0.000000
    47  H    0.000000  -0.000000   0.000000  -0.000000  -0.000000  -0.000000
    48  H   -0.000015   0.000000  -0.000032   0.000950  -0.000001  -0.002253
    49  H   -0.000002   0.000015   0.000123  -0.000230   0.003925  -0.008167
    50  H    0.000000   0.000002  -0.000001  -0.000039   0.000123   0.005224
              13         14         15         16         17         18
     1  C   -0.047807   0.007622   0.008020   0.366890  -0.039675  -0.000000
     2  C    0.004912  -0.000006  -0.100905  -0.039651   0.351173  -0.000000
     3  C    0.347909  -0.105337  -0.000009  -0.048491   0.005337  -0.000000
     4  C   -0.038155   0.385851   0.017538   0.002838   0.000624   0.000003
     5  C    0.000718   0.017967   0.387321   0.003779  -0.046864   0.000011
     6  C    0.004045   0.013918   0.010620   0.001545   0.004050  -0.000213
     7  C   -0.000213  -0.088924  -0.087959   0.000017  -0.000187   0.004045
     8  C    0.000011   0.016886  -0.001968  -0.000000   0.000004   0.000718
     9  C    0.000003  -0.001954   0.017456  -0.000000   0.000002  -0.038154
    10  C   -0.000000   0.009104   0.000075  -0.000000  -0.000000   0.004912
    11  C   -0.000000   0.000080   0.009320  -0.000000  -0.000000   0.347909
    12  C   -0.000000  -0.000327  -0.000324   0.000000  -0.000000  -0.047807
    13  H    0.602939  -0.007389   0.000013  -0.006196  -0.000165   0.000000
    14  C   -0.007389   5.216257  -0.000231  -0.000243   0.000013  -0.000000
    15  C    0.000013  -0.000231   5.212755  -0.000238  -0.007407   0.000265
    16  C   -0.006196  -0.000243  -0.000238   4.845254  -0.012820  -0.000000
    17  H   -0.000165   0.000013  -0.007407  -0.012820   0.601182   0.000000
    18  H    0.000000  -0.000000   0.000265  -0.000000   0.000000   0.602938
    19  C   -0.000000   0.000002   0.000002   0.000000  -0.000000  -0.006196
    20  C    0.000265   0.438497  -0.000016   0.000002  -0.000000   0.000013
    21  H    0.000000   0.000287  -0.000000  -0.000000   0.000000  -0.000165
    22  C   -0.000000  -0.000014   0.438500   0.000002   0.000287  -0.007389
    23  H   -0.000000   0.000002   0.350963  -0.000005   0.007114  -0.000012
    24  H    0.000000  -0.000000  -0.037492  -0.000000  -0.000012   0.007135
    25  H    0.007135   0.351322   0.000002  -0.000004  -0.000000   0.000000
    26  H   -0.000012  -0.037399  -0.000000  -0.000000   0.000000  -0.000000
    27  C    0.000000  -0.000000  -0.000000  -0.000000   0.000000   0.000088
    28  C    0.000000  -0.000000  -0.000000  -0.000000  -0.000000   0.000682
    29  C    0.000000  -0.000000  -0.000000  -0.000000  -0.000000   0.000682
    30  C    0.000088   0.000001  -0.000019   0.370230   0.007434   0.000000
    31  C    0.000682  -0.000008   0.000003   0.372642   0.000237   0.000000
    32  C    0.000682  -0.000008   0.000003   0.372645   0.000237   0.000000
    33  H    0.000000  -0.000000   0.000000  -0.000000   0.000000   0.000047
    34  H   -0.000000   0.000000   0.000000   0.000000  -0.000000  -0.000140
    35  H    0.000000  -0.000000  -0.000000  -0.000000  -0.000000   0.003259
    36  H   -0.000000  -0.000000  -0.000000  -0.000000   0.000000  -0.000000
    37  H    0.000000   0.000000   0.000000  -0.000000   0.000000  -0.000005
    38  H   -0.000000  -0.000000  -0.000000  -0.000000   0.000000  -0.000000
    39  H    0.000047   0.000001   0.000000  -0.029629  -0.000028   0.000000
    40  H   -0.000140  -0.000000  -0.000000  -0.029761  -0.000009  -0.000000
    41  H    0.003259  -0.000014   0.000000  -0.027382  -0.000008   0.000000
    42  H   -0.000000   0.000000  -0.000014  -0.025299   0.002049  -0.000000
    43  H   -0.000005  -0.000000   0.000000  -0.026070  -0.000155   0.000000
[...]
    48  H    0.000000   0.000000  -0.005049   0.367179   0.005692   0.000000
    49  H    0.000000   0.000000   0.005764   0.365599  -0.004594   0.000000
    50  H   -0.000000  -0.000000  -0.005467   0.361129  -0.004287   0.000000
              31         32         33         34         35         36
     1  C   -0.052089  -0.052088  -0.000000  -0.000000  -0.000000  -0.000000
     2  C    0.000570   0.000570  -0.000000  -0.000000   0.000000   0.000000
     3  C   -0.007086  -0.007086   0.000000  -0.000000   0.000000   0.000000
     4  C    0.000319   0.000319   0.000000   0.000000   0.000000   0.000000
     5  C   -0.000190  -0.000190   0.000000  -0.000000   0.000000  -0.000000
     6  C    0.000006   0.000007  -0.000000   0.000000  -0.000000  -0.000000
     7  C   -0.000000  -0.000000  -0.000014   0.000000  -0.000003  -0.000001
     8  C    0.000000   0.000000   0.000000   0.000002   0.000014   0.000098
     9  C   -0.000000  -0.000000  -0.000033  -0.000001   0.000115   0.000004
    10  C    0.000000   0.000000   0.000948  -0.000042  -0.000230   0.001741
    11  C   -0.000000  -0.000000  -0.000033   0.000136   0.004109  -0.000148
    12  C   -0.000000  -0.000000  -0.002183   0.005312  -0.008283  -0.006403
    13  H    0.000589   0.000589   0.000000  -0.000000   0.000000  -0.000000
    14  C   -0.000006  -0.000006  -0.000000   0.000000  -0.000000  -0.000000
    15  C    0.000002   0.000002   0.000000   0.000000  -0.000000  -0.000000
    16  C    0.374227   0.374227  -0.000000   0.000000  -0.000000  -0.000000
    17  H    0.000275   0.000275   0.000000  -0.000000  -0.000000   0.000000
    18  H    0.000000   0.000000   0.000057  -0.000150   0.003325   0.000000
    19  C   -0.000000  -0.000000  -0.028810  -0.029909  -0.026915  -0.024155
    20  C   -0.000000  -0.000000   0.000000  -0.000000   0.000000  -0.000012
    21  H   -0.000000  -0.000000  -0.000031  -0.000011  -0.000008   0.002003
    22  C    0.000000   0.000000   0.000001  -0.000000  -0.000011   0.000000
    23  H   -0.000000  -0.000000   0.000000  -0.000000   0.000000   0.000000
    24  H    0.000000   0.000000   0.000000  -0.000000  -0.000001   0.000000
    25  H   -0.000001  -0.000001   0.000000  -0.000000   0.000000   0.000000
    26  H    0.000000   0.000000   0.000000  -0.000000   0.000000  -0.000003
    27  C   -0.000000  -0.000000  -0.005049  -0.005467   0.005764   0.363285
    28  C   -0.000000   0.000000   0.005692  -0.004287  -0.004595  -0.005147
    29  C    0.000000  -0.000000   0.367179   0.361129   0.365599   0.005967
    30  C   -0.063735  -0.063735   0.000000   0.000000   0.000000   0.000000
    31  C    5.160338  -0.060365  -0.000000   0.000000   0.000000   0.000000
    32  C   -0.060365   5.160336   0.000000   0.000000  -0.000000  -0.000000
    33  H   -0.000000   0.000000   0.569559  -0.029608  -0.029634  -0.000061
    34  H    0.000000   0.000000  -0.029608   0.587475  -0.029846  -0.000049
    35  H    0.000000  -0.000000  -0.029634  -0.029846   0.574683  -0.000194
    36  H    0.000000  -0.000000  -0.000061  -0.000049  -0.000194   0.576276
    37  H    0.000000   0.000000  -0.000129   0.004351  -0.000036  -0.029887
    38  H   -0.000000   0.000000   0.004384  -0.000098  -0.000034  -0.033407
    39  H    0.005692   0.367179  -0.000000  -0.000000   0.000000   0.000000
    40  H   -0.004287   0.361129  -0.000000   0.000000  -0.000000   0.000000
    41  H   -0.004595   0.365599   0.000000  -0.000000  -0.000000  -0.000000
    42  H   -0.005147   0.005967   0.000000   0.000000  -0.000000  -0.000000
    43  H   -0.005650  -0.005650  -0.000000   0.000000  -0.000000   0.000000
    44  H    0.005967  -0.005147  -0.000000  -0.000000   0.000000   0.000000
    45  H    0.367179   0.005692   0.000000   0.000000  -0.000000  -0.000000
    46  H    0.365599  -0.004595  -0.000000   0.000000   0.000000   0.000000
    47  H    0.361129  -0.004287   0.000000   0.000000   0.000000  -0.000000
    48  H    0.000000  -0.000000  -0.000189  -0.000060  -0.000042   0.004384
    49  H   -0.000000   0.000000  -0.000042  -0.000132   0.002973  -0.000034
    50  H    0.000000   0.000000  -0.000060   0.003259  -0.000132  -0.000098
              37         38         39         40         41         42
     1  C   -0.000000  -0.000000  -0.002183   0.005312  -0.008283  -0.006403
     2  C   -0.000000   0.000000   0.000948  -0.000042  -0.000230   0.001741
     3  C   -0.000000   0.000000  -0.000033   0.000136   0.004109  -0.000148
     4  C   -0.000000   0.000000  -0.000033  -0.000001   0.000115   0.000004
     5  C    0.000000  -0.000000   0.000000   0.000002   0.000014   0.000098
     6  C   -0.000000  -0.000000  -0.000014   0.000000  -0.000003  -0.000001
     7  C   -0.000000  -0.000001  -0.000000   0.000000  -0.000000  -0.000000
     8  C   -0.000003   0.000098   0.000000  -0.000000   0.000000  -0.000000
     9  C    0.000002   0.000004   0.000000   0.000000   0.000000   0.000000
    10  C    0.000405   0.001741  -0.000000  -0.000000   0.000000   0.000000
    11  C   -0.000083  -0.000148   0.000000  -0.000000   0.000000   0.000000
    12  C    0.004247  -0.006404  -0.000000  -0.000000  -0.000000  -0.000000
    13  H    0.000000  -0.000000   0.000057  -0.000150   0.003325   0.000000
    14  C    0.000000  -0.000000   0.000001  -0.000000  -0.000011   0.000000
    15  C    0.000000  -0.000000   0.000000  -0.000000   0.000000  -0.000012
    16  C   -0.000000  -0.000000  -0.028810  -0.029909  -0.026915  -0.024155
    17  H    0.000000   0.000000  -0.000031  -0.000011  -0.000008   0.002003
    18  H   -0.000007   0.000000   0.000000  -0.000000   0.000000  -0.000000
    19  C   -0.027419  -0.024154  -0.000000   0.000000  -0.000000  -0.000000
    20  C    0.000000  -0.000012   0.000000   0.000000  -0.000000  -0.000000
    21  H   -0.000158   0.002003   0.000000  -0.000000  -0.000000   0.000000
    22  C   -0.000000   0.000000  -0.000000   0.000000  -0.000000  -0.000000
    23  H   -0.000000   0.000000   0.000000  -0.000000   0.000000  -0.000003
    24  H   -0.000000   0.000000   0.000000  -0.000000   0.000000   0.000000
    25  H   -0.000000   0.000000   0.000000  -0.000000  -0.000001   0.000000
    26  H    0.000000  -0.000003   0.000000  -0.000000   0.000000   0.000000
    27  C    0.365227   0.363284   0.000000   0.000000   0.000000   0.000000
    28  C   -0.005650   0.005967  -0.000000   0.000000   0.000000   0.000000
    29  C   -0.005650  -0.005147   0.000000   0.000000  -0.000000  -0.000000
    30  C    0.000000   0.000000  -0.005049  -0.005467   0.005764   0.363285
    31  C    0.000000  -0.000000   0.005692  -0.004287  -0.004595  -0.005147
    32  C    0.000000   0.000000   0.367179   0.361129   0.365599   0.005967
    33  H   -0.000129   0.004384  -0.000000  -0.000000   0.000000   0.000000
    34  H    0.004351  -0.000098  -0.000000   0.000000  -0.000000   0.000000
    35  H   -0.000036  -0.000034   0.000000  -0.000000  -0.000000  -0.000000
    36  H   -0.029887  -0.033407   0.000000   0.000000  -0.000000  -0.000000
    37  H    0.579423  -0.029887  -0.000000   0.000000  -0.000000   0.000000
    38  H   -0.029887   0.576277  -0.000000  -0.000000   0.000000   0.000000
    39  H   -0.000000  -0.000000   0.569559  -0.029608  -0.029634  -0.000061
    40  H    0.000000  -0.000000  -0.029608   0.587475  -0.029846  -0.000049
    41  H   -0.000000   0.000000  -0.029634  -0.029846   0.574683  -0.000194
    42  H    0.000000   0.000000  -0.000061  -0.000049  -0.000194   0.576276
    43  H    0.000000   0.000000  -0.000129   0.004351  -0.000036  -0.029887
    44  H    0.000000  -0.000000   0.004384  -0.000098  -0.000034  -0.033407
    45  H   -0.000000   0.000000  -0.000189  -0.000060  -0.000042   0.004384
    46  H   -0.000000  -0.000000  -0.000042  -0.000132   0.002973  -0.000034
    47  H    0.000000   0.000000  -0.000060   0.003259  -0.000132  -0.000098
    48  H   -0.000129  -0.000061   0.000000   0.000000  -0.000000  -0.000000
    49  H   -0.000036  -0.000194  -0.000000   0.000000   0.000000   0.000000
    50  H    0.004351  -0.000049   0.000000   0.000000   0.000000  -0.000000
              43         44         45         46         47         48
     1  C    0.004247  -0.006404  -0.002183  -0.008284   0.005312  -0.000000
     2  C    0.000405   0.001741   0.000947  -0.000230  -0.000042  -0.000000
     3  C   -0.000083  -0.000148  -0.000033   0.004108   0.000137   0.000000
     4  C    0.000002   0.000004  -0.000033   0.000115  -0.000001   0.000000
     5  C   -0.000003   0.000098   0.000000   0.000014   0.000002   0.000000
     6  C   -0.000000  -0.000001  -0.000014  -0.000003   0.000000  -0.000000
     7  C   -0.000000  -0.000000  -0.000000  -0.000000   0.000000  -0.000014
     8  C    0.000000  -0.000000   0.000000   0.000000  -0.000000   0.000000
     9  C   -0.000000   0.000000   0.000000   0.000000   0.000000  -0.000033
    10  C   -0.000000   0.000000  -0.000000   0.000000  -0.000000   0.000947
    11  C   -0.000000   0.000000   0.000000   0.000000  -0.000000  -0.000033
    12  C   -0.000000  -0.000000  -0.000000  -0.000000  -0.000000  -0.002183
    13  H   -0.000007   0.000000   0.000057   0.003325  -0.000150   0.000000
    14  C   -0.000000   0.000000   0.000001  -0.000011  -0.000000  -0.000000
    15  C    0.000000  -0.000012   0.000000   0.000000  -0.000000   0.000000
    16  C   -0.027419  -0.024154  -0.028810  -0.026915  -0.029909  -0.000000
    17  H   -0.000158   0.002003  -0.000031  -0.000008  -0.000011   0.000000
    18  H    0.000000  -0.000000   0.000000   0.000000  -0.000000   0.000057
    19  C   -0.000000  -0.000000  -0.000000  -0.000000   0.000000  -0.028810
    20  C    0.000000  -0.000000   0.000000  -0.000000   0.000000   0.000000
    21  H    0.000000   0.000000   0.000000  -0.000000  -0.000000  -0.000031
    22  C    0.000000  -0.000000  -0.000000  -0.000000   0.000000   0.000001
    23  H    0.000000  -0.000003   0.000000   0.000000  -0.000000   0.000000
    24  H   -0.000000   0.000000   0.000000   0.000000  -0.000000   0.000000
    25  H   -0.000000   0.000000   0.000000  -0.000001  -0.000000   0.000000
    26  H   -0.000000   0.000000   0.000000   0.000000  -0.000000   0.000000
    27  C    0.000000   0.000000   0.000000   0.000000   0.000000  -0.005049
    28  C    0.000000  -0.000000   0.000000  -0.000000   0.000000   0.367179
    29  C    0.000000   0.000000  -0.000000   0.000000   0.000000   0.005692
    30  C    0.365227   0.363284  -0.005049   0.005764  -0.005467   0.000000
    31  C   -0.005650   0.005967   0.367179   0.365599   0.361129   0.000000
    32  C   -0.005650  -0.005147   0.005692  -0.004595  -0.004287  -0.000000
    33  H   -0.000000  -0.000000   0.000000  -0.000000   0.000000  -0.000189
    34  H    0.000000  -0.000000   0.000000   0.000000   0.000000  -0.000060
    35  H   -0.000000   0.000000  -0.000000   0.000000   0.000000  -0.000042
    36  H    0.000000   0.000000  -0.000000   0.000000  -0.000000   0.004384
    37  H    0.000000   0.000000  -0.000000  -0.000000   0.000000  -0.000129
    38  H    0.000000  -0.000000   0.000000  -0.000000   0.000000  -0.000061
    39  H   -0.000129   0.004384  -0.000189  -0.000042  -0.000060   0.000000
    40  H    0.004351  -0.000098  -0.000060  -0.000132   0.003259   0.000000
    41  H   -0.000036  -0.000034  -0.000042   0.002973  -0.000132  -0.000000
    42  H   -0.029887  -0.033407   0.004384  -0.000034  -0.000098  -0.000000
    43  H    0.579423  -0.029887  -0.000129  -0.000036   0.004351  -0.000000
    44  H   -0.029887   0.576277  -0.000061  -0.000194  -0.000049   0.000000
    45  H   -0.000129  -0.000061   0.569558  -0.029634  -0.029608  -0.000000
    46  H   -0.000036  -0.000194  -0.029634   0.574683  -0.029846   0.000000
    47  H    0.004351  -0.000049  -0.029608  -0.029846   0.587475  -0.000000
    48  H   -0.000000   0.000000  -0.000000   0.000000  -0.000000   0.569558
    49  H   -0.000000  -0.000000   0.000000  -0.000000  -0.000000  -0.029634
    50  H    0.000000   0.000000  -0.000000  -0.000000   0.000000  -0.029608
              49         50
     1  C   -0.000000  -0.000000
     2  C    0.000000  -0.000000
     3  C    0.000000  -0.000000
     4  C    0.000000   0.000000
     5  C    0.000000  -0.000000
     6  C   -0.000000   0.000000
     7  C   -0.000003   0.000000
     8  C    0.000014   0.000002
     9  C    0.000115  -0.000001
    10  C   -0.000230  -0.000042
    11  C    0.004108   0.000137
    12  C   -0.008284   0.005312
    13  H    0.000000  -0.000000
    14  C   -0.000000   0.000000
    15  C   -0.000000   0.000000
    16  C   -0.000000   0.000000
    17  H   -0.000000  -0.000000
    18  H    0.003326  -0.000150
    19  C   -0.026915  -0.029909
    20  C    0.000000  -0.000000
    21  H   -0.000008  -0.000011
    22  C   -0.000011  -0.000000
    23  H    0.000000  -0.000000
    24  H   -0.000001  -0.000000
    25  H    0.000000  -0.000000
    26  H    0.000000  -0.000000
    27  C    0.005764  -0.005467
    28  C    0.365599   0.361129
    29  C   -0.004594  -0.004287
    30  C    0.000000   0.000000
    31  C   -0.000000   0.000000
    32  C    0.000000   0.000000
    33  H   -0.000042  -0.000060
    34  H   -0.000132   0.003259
    35  H    0.002973  -0.000132
    36  H   -0.000034  -0.000098
    37  H   -0.000036   0.004351
    38  H   -0.000194  -0.000049
    39  H   -0.000000   0.000000
    40  H    0.000000   0.000000
    41  H    0.000000   0.000000
    42  H    0.000000  -0.000000
    43  H   -0.000000   0.000000
    44  H   -0.000000   0.000000
    45  H    0.000000  -0.000000
    46  H   -0.000000  -0.000000
    47  H   -0.000000   0.000000
    48  H   -0.029634  -0.029608
    49  H    0.574683  -0.029846
    50  H   -0.029846   0.587475
 Mulliken charges:
               1
     1  C    0.203196
     2  C   -0.318212
     3  C   -0.305510
     4  C    0.177050
     5  C    0.179610
     6  C   -0.015741
     7  C   -0.015741
     8  C    0.179610
     9  C    0.177050
    10  C   -0.318212
    11  C   -0.305510
    12  C    0.203196
    13  H    0.122590
    14  C   -0.197631
    15  C   -0.196306
    16  C    0.014809
    17  H    0.124101
    18  H    0.122590
    19  C    0.014809
    20  C   -0.196306
    21  H    0.124101
    22  C   -0.197631
    23  H    0.126881
    24  H    0.126564
    25  H    0.126564
    26  H    0.126881
    27  C   -0.455543
    28  C   -0.438741
    29  C   -0.438739
    30  C   -0.455543
    31  C   -0.438741
    32  C   -0.438740
    33  H    0.148056
    34  H    0.137998
    35  H    0.143383
    36  H    0.145839
    37  H    0.141068
    38  H    0.145839
    39  H    0.148056
    40  H    0.137998
    41  H    0.143383
    42  H    0.145839
    43  H    0.141068
    44  H    0.145839
    45  H    0.148056
    46  H    0.143383
    47  H    0.137997
    48  H    0.148056
    49  H    0.143383
    50  H    0.137997
 Sum of Mulliken charges =  -0.00000
 Mulliken charges with hydrogens summed into heavy atoms:
               1
     1  C    0.203196
     2  C   -0.194111
     3  C   -0.182919
     4  C    0.177050
     5  C    0.179610
     6  C   -0.015741
     7  C   -0.015741
     8  C    0.179610
     9  C    0.177050
    10  C   -0.194111
    11  C   -0.182919
    12  C    0.203196
    14  C   -0.071066
    15  C   -0.069425
    16  C    0.014809
    19  C    0.014809
    20  C   -0.069425
    22  C   -0.071066
    27  C   -0.022796
    28  C   -0.009304
    29  C   -0.009303
    30  C   -0.022796
    31  C   -0.009304
    32  C   -0.009303
 Electronic spatial extent (au):  <R**2>=          10855.3995
 Charge=              0.0000 electrons
 Dipole moment (field-independent basis, Debye):
    X=              0.0000    Y=             -0.0000    Z=             -0.0000  Tot=              0.0000
 Quadrupole moment (field-independent basis, Debye-Ang):
   XX=           -128.1386   YY=           -133.8022   ZZ=           -148.7090
   XY=             -0.0046   XZ=             -0.0000   YZ=              0.0000
 Traceless Quadrupole moment (field-independent basis, Debye-Ang):
   XX=              8.7447   YY=              3.0811   ZZ=            -11.8257
   XY=             -0.0046   XZ=             -0.0000   YZ=              0.0000
 Octapole moment (field-independent basis, Debye-Ang**2):
  XXX=              0.0000  YYY=              0.0000  ZZZ=             -0.0004  XYY=             -0.0000
  XXY=              0.0000  XXZ=              0.0000  XZZ=             -0.0000  YZZ=              0.0000
  YYZ=              0.0003  XYZ=              0.0000
 Hexadecapole moment (field-independent basis, Debye-Ang**3):
 XXXX=         -12246.0448 YYYY=          -1759.9132 ZZZZ=           -514.2142 XXXY=             -2.6618
 XXXZ=              0.0002 YYYX=            -12.8514 YYYZ=              0.0000 ZZZX=             -0.0005
 ZZZY=             -0.0000 XXYY=          -2397.5079 XXZZ=          -2251.9040 YYZZ=           -423.4666
 XXYZ=             -0.0000 YYXZ=              0.0004 ZZXY=             15.7122
 N-N= 1.939127147643D+03 E-N=-6.030182687633D+03  KE= 9.211591968623D+02
 Unable to Open any file for archive entry.
 1\1\GINC-CDR1838\FOpt\RB3LYP\6-31G(d)\C24H26\LUSTRA\26-Jan-2022\0\\#n 
 B3LYP/6-31G(d) Opt\\ditertbutylpyrene\\0,1\C,-1.0366624226,2.850158982
 9,0.4201365982\C,0.2686960712,2.5500593426,0.0123029266\C,-1.794504965
 2,1.8219613883,1.0024545688\C,-1.2890516114,0.5273449735,1.1831785798\
 C,0.8252534729,1.2695875825,0.1696187166\C,0.0422664803,0.2390670422,0
 .76212003\C,0.5827605828,-1.0669315487,0.9328515227\C,-0.2002259755,-2
 .0974517704,1.5253540035\C,1.9140787704,-1.3552093723,0.5117932754\C,0
 .3563315537,-3.3779234265,1.6826700426\C,2.4195317461,-2.6498260972,0.
 6925162079\C,1.6616886563,-3.6780241352,1.2748326375\H,-2.8118473572,2
 .020201845,1.3305496386\C,-2.059360265,-0.5320132009,1.779169807\C,2.1
 657379446,0.9534360468,-0.2468983064\C,-1.657114424,4.2508907899,0.252
 4487109\H,0.8883452744,3.3158426276,-0.4422974097\H,3.4368754854,-2.84
 80654708,0.3644246677\C,2.282143457,-5.0787538078,1.4425279034\C,-1.54
 0710021,-1.7812999021,1.9418721003\H,-0.2633172973,-4.1437064905,2.137
 2712346\C,2.6843880395,-0.2958507637,-0.0841964038\H,2.7643186384,1.74
 06184519,-0.6996735265\H,3.7001338223,-0.5142152097,-0.4059019301\H,-3
 .0751057545,-0.3136485705,2.1008761497\H,-2.1392903091,-2.568481941,2.
 3946485022\C,1.3102837043,-6.078457596,2.0977389907\C,3.5423748156,-4.
 9804298578,2.3348709567\C,2.6791981349,-5.6357667717,0.0546475742\C,-0
 .6852160126,5.2506238439,-0.4026603768\C,-2.0542660358,4.8078498367,1.
 640322677\C,-2.9172849445,4.1525933611,-0.6399835413\H,1.802707982,-5.
 7235280898,-0.5974611599\H,3.1280967567,-6.6314309448,0.157443525\H,3.
 4074786508,-4.9928140955,-0.4504360488\H,1.010936421,-5.7583847949,3.1
 022475736\H,1.7969062366,-7.0555996624,2.1943298682\H,0.403714684,-6.2
 193385786,1.4982572099\H,-2.6639477175,3.7672357078,-1.6342182233\H,-3
 .3744752111,5.1419630635,-0.7646783461\H,-3.6731396126,3.4887017815,-0
 .2077544948\H,0.2212929836,5.3915203012,0.1969082947\H,-1.1718519646,6
 .2277557099,-0.4992867895\H,-0.3857663203,4.930567695,-1.4071438879\H,
 -1.1778187414,4.8956034382,2.2924901229\H,-2.7825673279,4.1648666194,2
 .1453379858\H,-2.5031752361,5.8035098621,1.537532675\H,3.2891052978,-4
 .5950456837,3.329112647\H,4.2981976722,-4.3165474829,1.9025715656\H,3.
 9995761921,-5.9697950286,2.4595609535\\Version=ES64L-G16RevC.01\State=
 1-A\HF=-930.2823966\RMSD=8.570e-09\RMSF=1.797e-05\Dipole=0.0000005,0.0
 000004,0.0000014\Quadrupole=1.6297013,5.0640795,-6.6937807,-2.4775433,
 -3.232669,-3.0441471\PG=C01 [X(C24H26)]\\@
 The archive entry for this job was punched.


 BOOKS ARE LIGHTHOUSES ERECTED IN THE GREAT SEA OF TIME.
     -- E.P.WHIPPLE
 Job cpu time:       0 days  0 hours 49 minutes 47.9 seconds.
 Elapsed time:       0 days  0 hours 24 minutes 58.4 seconds.
 File lengths (MBytes):  RWF=    112 Int=      0 D2E=      0 Chk=     15 Scr=      1
 Normal termination of Gaussian 16 at Wed Jan 26 08:17:11 2022.
